<?xml version="1.0" encoding="UTF-8"?>

<!-- generated on 2025-12-03 15:37:48 by Eclipse SUMO GUI Version 1.24.0
<sumoConfiguration xmlns:xsi="http://www.w3.org/2001/XMLSchema-instance" xsi:noNamespaceSchemaLocation="http://sumo.dlr.de/xsd/sumoConfiguration.xsd">

    <input>
        <net-file value="Olivarez_traci\network/baseline.net.xml"/>
        <route-files value="Olivarez_traci\demand/flows_traffic_jam.rou.xml"/>
        <additional-files value="Olivarez_traci\additionals/map.poly.xml,Olivarez_traci\ additionals/detectors.add.xml"/>
    </input>

    <output>
        <tripinfo-output value="Olivarez_traci\output_DQN\BP_DQN_trips.xml"/>
        <statistic-output value="Olivarez_traci\output_DQN\BP_DQN_stats.xml"/>
    </output>

    <time>
        <begin value="0"/>
        <end value="10800"/>
        <step-length value="0.05"/>
    </time>

    <processing>
        <lateral-resolution value="0.1"/>
        <collision.action value="none"/>
        <collision.check-junctions value="false"/>
        <collision.mingap-factor value="0"/>
    </processing>

    <report>
        <no-warnings value="true"/>
    </report>

    <traci_server>
        <remote-port value="49895"/>
    </traci_server>

    <gui_only>
        <delay value="100"/>
    </gui_only>

</sumoConfiguration>
-->

<tripinfos xmlns:xsi="http://www.w3.org/2001/XMLSchema-instance" xsi:noNamespaceSchemaLocation="http://sumo.dlr.de/xsd/tripinfo_file.xsd">
    <personinfo id="pf_2.0" depart="0.00" type="ped" speedFactor="0.83" duration="29.80" waitingTime="0.00" timeLoss="3.01" traveltime="29.80">
        <walk depart="0.00" departPos="15.09" arrival="29.80" arrivalPos="3.44" duration="29.80" routeLength="30.72" timeLoss="3.01" maxSpeed="1.15" waitingTime="0.00"/>
    </personinfo>
    <personinfo id="pf_2.1" depart="15.00" type="ped" speedFactor="0.87" duration="28.10" waitingTime="0.00" timeLoss="2.75" traveltime="28.10">
        <walk depart="15.00" departPos="15.09" arrival="43.10" arrivalPos="3.44" duration="28.10" routeLength="30.72" timeLoss="2.75" maxSpeed="1.21" waitingTime="0.00"/>
    </personinfo>
    <personinfo id="pf_2.2" depart="30.00" type="ped" speedFactor="0.92" duration="26.75" waitingTime="0.00" timeLoss="2.63" traveltime="26.75">
        <walk depart="30.00" departPos="15.09" arrival="56.75" arrivalPos="3.44" duration="26.75" routeLength="30.72" timeLoss="2.63" maxSpeed="1.27" waitingTime="0.00"/>
    </personinfo>
    <tripinfo id="A2_1.1" depart="8.20" departLane="-793339796#2_2" departPos="2.30" departPosLat="0.00" departSpeed="29.35" departDelay="0.00" arrival="61.05" arrivalLane="-440471861#0_2" arrivalPos="31.52" arrivalPosLat="0.00" arrivalSpeed="29.29" duration="52.85" routeLength="1084.07" waitingTime="1.10" waitingCount="1" stopTime="0.00" timeLoss="15.88" rerouteNo="1" devices="tripinfo_A2_1.1 routing_A2_1.1" vType="motorcycle" speedFactor="1.06" vaporized=""/>
    <personinfo id="pf_2.3" depart="45.00" type="ped" speedFactor="0.95" duration="25.80" waitingTime="0.00" timeLoss="2.49" traveltime="25.80">
        <walk depart="45.00" departPos="15.09" arrival="70.80" arrivalPos="3.44" duration="25.80" routeLength="30.72" timeLoss="2.49" maxSpeed="1.32" waitingTime="0.00"/>
    </personinfo>
    <tripinfo id="A2_1.0" depart="4.45" departLane="-793339796#2_1" departPos="5.10" departPosLat="0.00" departSpeed="26.27" departDelay="0.00" arrival="71.25" arrivalLane="-440471861#0_1" arrivalPos="31.52" arrivalPosLat="0.00" arrivalSpeed="29.29" duration="66.80" routeLength="1081.27" waitingTime="0.00" waitingCount="0" stopTime="0.00" timeLoss="29.91" rerouteNo="1" devices="tripinfo_A2_1.0 routing_A2_1.0" vType="car" speedFactor="1.06" vaporized=""/>
    <personinfo id="pf_2.4" depart="60.00" type="ped" speedFactor="1.13" duration="21.60" waitingTime="0.00" timeLoss="2.06" traveltime="21.60">
        <walk depart="60.00" departPos="15.09" arrival="81.60" arrivalPos="3.44" duration="21.60" routeLength="30.72" timeLoss="2.06" maxSpeed="1.57" waitingTime="0.00"/>
    </personinfo>
    <tripinfo id="A2_1.2" depart="20.70" departLane="-793339796#2_1" departPos="2.30" departPosLat="0.00" departSpeed="26.42" departDelay="0.00" arrival="82.30" arrivalLane="-440471861#0_1" arrivalPos="31.52" arrivalPosLat="0.00" arrivalSpeed="26.38" duration="61.60" routeLength="1084.07" waitingTime="0.00" waitingCount="0" stopTime="0.00" timeLoss="20.55" rerouteNo="1" devices="tripinfo_A2_1.2 routing_A2_1.2" vType="tricycle" speedFactor="0.95" vaporized=""/>
    <tripinfo id="D1_1.0" depart="0.60" departLane="140483224#1_1" departPos="5.10" departPosLat="0.00" departSpeed="24.93" departDelay="0.00" arrival="99.90" arrivalLane="-793339796#2_1" arrivalPos="82.50" arrivalPosLat="0.00" arrivalSpeed="24.88" duration="99.30" routeLength="1648.38" waitingTime="0.90" waitingCount="1" stopTime="0.00" timeLoss="30.58" rerouteNo="1" devices="tripinfo_D1_1.0 routing_D1_1.0" vType="car" speedFactor="0.90" vaporized=""/>
    <personinfo id="pf_2.5" depart="75.00" type="ped" speedFactor="0.93" duration="26.30" waitingTime="0.00" timeLoss="2.55" traveltime="26.30">
        <walk depart="75.00" departPos="15.09" arrival="101.30" arrivalPos="3.44" duration="26.30" routeLength="30.72" timeLoss="2.55" maxSpeed="1.29" waitingTime="0.00"/>
    </personinfo>
    <personinfo id="pf_4.0" depart="0.00" type="ped" speedFactor="1.11" duration="107.00" waitingTime="0.00" timeLoss="10.80" traveltime="107.00">
        <walk depart="0.00" departPos="25.00" arrival="51.95" arrivalPos="29.11" duration="51.95" routeLength="72.15" timeLoss="5.16" maxSpeed="1.54" waitingTime="0.00"/>
        <walk depart="51.95" departPos="29.11" arrival="107.00" arrivalPos="29.05" duration="55.05" routeLength="76.20" timeLoss="5.64" maxSpeed="1.54" waitingTime="0.00"/>
    </personinfo>
    <personinfo id="pf_2.6" depart="90.00" type="ped" speedFactor="1.18" duration="20.80" waitingTime="0.00" timeLoss="2.03" traveltime="20.80">
        <walk depart="90.00" departPos="15.09" arrival="110.80" arrivalPos="3.44" duration="20.80" routeLength="30.72" timeLoss="2.03" maxSpeed="1.64" waitingTime="0.00"/>
    </personinfo>
    <tripinfo id="D3_1.0" depart="7.65" departLane="140483224#1_2" departPos="5.10" departPosLat="0.00" departSpeed="27.02" departDelay="0.00" arrival="117.65" arrivalLane="-440471861#0_2" arrivalPos="31.52" arrivalPosLat="0.00" arrivalSpeed="26.99" duration="110.00" routeLength="1067.97" waitingTime="47.50" waitingCount="1" stopTime="0.00" timeLoss="68.89" rerouteNo="1" devices="tripinfo_D3_1.0 routing_D3_1.0" vType="car" speedFactor="0.97" vaporized=""/>
    <tripinfo id="C3_1.0" depart="11.40" departLane="440471861#0_1" departPos="12.10" departPosLat="0.00" departSpeed="27.78" departDelay="0.00" arrival="118.50" arrivalLane="-140483224#1_2" arrivalPos="64.04" arrivalPosLat="0.00" arrivalSpeed="27.76" duration="107.10" routeLength="1045.78" waitingTime="25.20" waitingCount="2" stopTime="0.00" timeLoss="68.12" rerouteNo="1" devices="tripinfo_C3_1.0 routing_C3_1.0" vType="bus" speedFactor="1.00" vaporized=""/>
    <tripinfo id="A3_1.0" depart="15.50" departLane="-793339796#2_2" departPos="5.10" departPosLat="0.00" departSpeed="26.19" departDelay="0.00" arrival="124.05" arrivalLane="-140483224#1_2" arrivalPos="64.04" arrivalPosLat="0.00" arrivalSpeed="27.31" duration="108.55" routeLength="1080.94" waitingTime="31.50" waitingCount="4" stopTime="0.00" timeLoss="67.51" rerouteNo="1" devices="tripinfo_A3_1.0 routing_A3_1.0" vType="car" speedFactor="0.99" vaporized=""/>
    <personinfo id="pf_2.7" depart="105.00" type="ped" speedFactor="1.15" duration="21.15" waitingTime="0.00" timeLoss="1.99" traveltime="21.15">
        <walk depart="105.00" departPos="15.09" arrival="126.15" arrivalPos="3.44" duration="21.15" routeLength="30.72" timeLoss="1.99" maxSpeed="1.60" waitingTime="0.00"/>
    </personinfo>
    <tripinfo id="A3_1.1" depart="30.50" departLane="-793339796#2_2" departPos="12.10" departPosLat="0.00" departSpeed="23.55" departDelay="0.00" arrival="130.50" arrivalLane="-140483224#1_2" arrivalPos="64.04" arrivalPosLat="0.00" arrivalSpeed="27.76" duration="100.00" routeLength="1073.94" waitingTime="7.20" waitingCount="2" stopTime="0.00" timeLoss="59.82" rerouteNo="1" devices="tripinfo_A3_1.1 routing_A3_1.1" vType="bus" speedFactor="1.00" vaporized=""/>
    <personinfo id="pf_4.1" depart="15.00" type="ped" speedFactor="1.02" duration="116.65" waitingTime="0.00" timeLoss="11.46" traveltime="116.65">
        <walk depart="15.00" departPos="25.00" arrival="71.65" arrivalPos="29.11" duration="56.65" routeLength="72.15" timeLoss="5.49" maxSpeed="1.41" waitingTime="0.00"/>
        <walk depart="71.65" departPos="29.11" arrival="131.65" arrivalPos="29.05" duration="60.00" routeLength="76.20" timeLoss="5.97" maxSpeed="1.41" waitingTime="0.00"/>
    </personinfo>
    <tripinfo id="C1_1.0" depart="17.65" departLane="440471861#0_1" departPos="2.30" departPosLat="0.00" departSpeed="28.93" departDelay="0.00" arrival="131.75" arrivalLane="-793339796#2_2" arrivalPos="82.50" arrivalPosLat="0.00" arrivalSpeed="28.85" duration="114.10" routeLength="1656.79" waitingTime="32.75" waitingCount="2" stopTime="0.00" timeLoss="55.76" rerouteNo="1" devices="tripinfo_C1_1.0 routing_C1_1.0" vType="motorcycle" speedFactor="1.04" vaporized=""/>
    <tripinfo id="A2_1.4" depart="62.90" departLane="-793339796#2_1" departPos="5.10" departPosLat="0.00" departSpeed="26.27" departDelay="0.00" arrival="136.10" arrivalLane="-440471861#0_2" arrivalPos="31.52" arrivalPosLat="0.00" arrivalSpeed="27.17" duration="73.20" routeLength="1081.27" waitingTime="0.00" waitingCount="0" stopTime="0.00" timeLoss="33.44" rerouteNo="1" devices="tripinfo_A2_1.4 routing_A2_1.4" vType="car" speedFactor="0.98" vaporized=""/>
    <tripinfo id="C1_1.3" depart="41.05" departLane="440471861#0_1" departPos="2.30" departPosLat="0.00" departSpeed="29.34" departDelay="0.00" arrival="136.55" arrivalLane="-793339796#2_2" arrivalPos="82.50" arrivalPosLat="0.00" arrivalSpeed="16.36" duration="95.50" routeLength="1656.79" waitingTime="2.95" waitingCount="2" stopTime="0.00" timeLoss="37.95" rerouteNo="1" devices="tripinfo_C1_1.3 routing_C1_1.3" vType="motorcycle" speedFactor="1.06" vaporized=""/>
    <tripinfo id="A2_1.3" depart="27.05" departLane="-793339796#2_1" departPos="7.20" departPosLat="0.00" departSpeed="24.43" departDelay="0.00" arrival="139.45" arrivalLane="-440471861#0_1" arrivalPos="31.52" arrivalPosLat="0.00" arrivalSpeed="22.03" duration="112.40" routeLength="1079.17" waitingTime="20.35" waitingCount="1" stopTime="0.00" timeLoss="73.43" rerouteNo="1" devices="tripinfo_A2_1.3 routing_A2_1.3" vType="truck" speedFactor="1.00" vaporized=""/>
    <personinfo id="pf_2.8" depart="120.00" type="ped" speedFactor="1.01" duration="24.35" waitingTime="0.00" timeLoss="2.34" traveltime="24.35">
        <walk depart="120.00" departPos="15.09" arrival="144.35" arrivalPos="3.44" duration="24.35" routeLength="30.72" timeLoss="2.34" maxSpeed="1.40" waitingTime="0.00"/>
    </personinfo>
    <tripinfo id="C2_1.0" depart="20.15" departLane="440471861#0_2" departPos="8.10" departPosLat="0.00" departSpeed="27.78" departDelay="0.00" arrival="144.65" arrivalLane="-145894807#0_1" arrivalPos="260.95" arrivalPosLat="0.00" arrivalSpeed="8.31" duration="124.50" routeLength="1079.06" waitingTime="7.90" waitingCount="1" stopTime="0.00" timeLoss="39.35" rerouteNo="1" devices="tripinfo_C2_1.0 routing_C2_1.0" vType="jeep" speedFactor="1.00" vaporized=""/>
    <personinfo id="pf_4.2" depart="30.00" type="ped" speedFactor="1.01" duration="117.30" waitingTime="0.00" timeLoss="11.62" traveltime="117.30">
        <walk depart="30.00" departPos="25.00" arrival="86.95" arrivalPos="29.11" duration="56.95" routeLength="72.15" timeLoss="5.55" maxSpeed="1.40" waitingTime="0.00"/>
        <walk depart="86.95" departPos="29.11" arrival="147.30" arrivalPos="29.05" duration="60.35" routeLength="76.20" timeLoss="6.07" maxSpeed="1.40" waitingTime="0.00"/>
    </personinfo>
    <tripinfo id="A2_1.5" depart="64.95" departLane="-793339796#2_1" departPos="7.20" departPosLat="0.00" departSpeed="19.70" departDelay="0.00" arrival="149.15" arrivalLane="-440471861#0_1" arrivalPos="31.52" arrivalPosLat="0.00" arrivalSpeed="22.10" duration="84.20" routeLength="1079.17" waitingTime="0.00" waitingCount="0" stopTime="0.00" timeLoss="40.82" rerouteNo="1" devices="tripinfo_A2_1.5 routing_A2_1.5" vType="truck" speedFactor="0.90" vaporized=""/>
    <tripinfo id="B2_1.0" depart="6.95" departLane="-361257727#0_1" departPos="5.10" departPosLat="0.00" departSpeed="8.38" departDelay="0.00" arrival="152.70" arrivalLane="-440471861#0_2" arrivalPos="31.52" arrivalPosLat="0.00" arrivalSpeed="27.93" duration="145.75" routeLength="1397.68" waitingTime="9.20" waitingCount="1" stopTime="0.00" timeLoss="29.46" rerouteNo="1" devices="tripinfo_B2_1.0 routing_B2_1.0" vType="car" speedFactor="1.01" vaporized=""/>
    <tripinfo id="D2_1.0" depart="33.65" departLane="140483224#1_1" departPos="5.10" departPosLat="0.00" departSpeed="26.65" departDelay="0.00" arrival="153.50" arrivalLane="-145894807#0_1" arrivalPos="260.95" arrivalPosLat="0.00" arrivalSpeed="7.96" duration="119.85" routeLength="1092.76" waitingTime="18.50" waitingCount="2" stopTime="0.00" timeLoss="30.96" rerouteNo="1" devices="tripinfo_D2_1.0 routing_D2_1.0" vType="car" speedFactor="0.96" vaporized=""/>
    <tripinfo id="B2_1.1" depart="31.00" departLane="-361257727#0_1" departPos="2.30" departPosLat="0.00" departSpeed="9.48" departDelay="0.00" arrival="154.75" arrivalLane="-440471861#0_2" arrivalPos="31.52" arrivalPosLat="0.00" arrivalSpeed="28.14" duration="123.75" routeLength="1400.48" waitingTime="0.00" waitingCount="0" stopTime="0.00" timeLoss="20.64" rerouteNo="1" devices="tripinfo_B2_1.1 routing_B2_1.1" vType="tricycle" speedFactor="1.14" vaporized=""/>
    <personinfo id="pf_2.9" depart="135.00" type="ped" speedFactor="1.17" duration="20.90" waitingTime="0.00" timeLoss="2.02" traveltime="20.90">
        <walk depart="135.00" departPos="15.09" arrival="155.90" arrivalPos="3.44" duration="20.90" routeLength="30.72" timeLoss="2.02" maxSpeed="1.63" waitingTime="0.00"/>
    </personinfo>
    <tripinfo id="D1_1.1" depart="37.25" departLane="140483224#1_1" departPos="5.10" departPosLat="0.00" departSpeed="28.29" departDelay="0.00" arrival="157.30" arrivalLane="-793339796#2_1" arrivalPos="82.50" arrivalPosLat="0.00" arrivalSpeed="28.24" duration="120.05" routeLength="1648.38" waitingTime="20.00" waitingCount="2" stopTime="0.00" timeLoss="59.48" rerouteNo="1" devices="tripinfo_D1_1.1 routing_D1_1.1" vType="car" speedFactor="1.02" vaporized=""/>
    <tripinfo id="A3_1.2" depart="63.55" departLane="-793339796#2_2" departPos="7.20" departPosLat="0.00" departSpeed="24.36" departDelay="0.00" arrival="161.75" arrivalLane="-140483224#1_2" arrivalPos="64.04" arrivalPosLat="0.00" arrivalSpeed="28.28" duration="98.20" routeLength="1078.84" waitingTime="16.75" waitingCount="2" stopTime="0.00" timeLoss="58.60" rerouteNo="1" devices="tripinfo_A3_1.2 routing_A3_1.2" vType="truck" speedFactor="1.02" vaporized=""/>
    <tripinfo id="C3_1.1" depart="23.60" departLane="440471861#0_1" departPos="7.20" departPosLat="0.00" departSpeed="26.64" departDelay="0.00" arrival="161.90" arrivalLane="-140483224#1_1" arrivalPos="64.04" arrivalPosLat="0.00" arrivalSpeed="26.62" duration="138.30" routeLength="1050.68" waitingTime="53.65" waitingCount="2" stopTime="0.00" timeLoss="97.45" rerouteNo="1" devices="tripinfo_C3_1.1 routing_C3_1.1" vType="truck" speedFactor="0.96" vaporized=""/>
    <tripinfo id="C3_1.2" depart="43.55" departLane="440471861#0_1" departPos="5.10" departPosLat="0.00" departSpeed="27.06" departDelay="0.00" arrival="162.95" arrivalLane="-140483224#1_2" arrivalPos="64.04" arrivalPosLat="0.00" arrivalSpeed="30.13" duration="119.40" routeLength="1052.78" waitingTime="44.55" waitingCount="1" stopTime="0.00" timeLoss="85.10" rerouteNo="1" devices="tripinfo_C3_1.2 routing_C3_1.2" vType="car" speedFactor="1.14" vaporized=""/>
    <personinfo id="pf_4.4" depart="60.00" type="ped" speedFactor="1.05" duration="113.15" waitingTime="0.00" timeLoss="11.08" traveltime="113.15">
        <walk depart="60.00" departPos="25.00" arrival="115.00" arrivalPos="29.11" duration="55.00" routeLength="72.15" timeLoss="5.36" maxSpeed="1.45" waitingTime="0.00"/>
        <walk depart="115.00" departPos="29.11" arrival="173.15" arrivalPos="29.05" duration="58.15" routeLength="76.20" timeLoss="5.72" maxSpeed="1.45" waitingTime="0.00"/>
    </personinfo>
    <tripinfo id="D3_1.1" depart="89.80" departLane="140483224#1_2" departPos="5.10" departPosLat="0.00" departSpeed="25.66" departDelay="0.00" arrival="173.25" arrivalLane="-440471861#0_2" arrivalPos="31.52" arrivalPosLat="0.00" arrivalSpeed="25.62" duration="83.45" routeLength="1067.97" waitingTime="17.30" waitingCount="2" stopTime="0.00" timeLoss="40.19" rerouteNo="1" devices="tripinfo_D3_1.1 routing_D3_1.1" vType="car" speedFactor="0.92" vaporized=""/>
    <personinfo id="pf_2.10" depart="150.00" type="ped" speedFactor="0.99" duration="24.55" waitingTime="0.00" timeLoss="2.31" traveltime="24.55">
        <walk depart="150.00" departPos="15.09" arrival="174.55" arrivalPos="3.44" duration="24.55" routeLength="30.72" timeLoss="2.31" maxSpeed="1.38" waitingTime="0.00"/>
    </personinfo>
    <tripinfo id="D3_1.2" depart="100.85" departLane="140483224#1_2" departPos="5.10" departPosLat="0.00" departSpeed="27.97" departDelay="0.00" arrival="175.80" arrivalLane="-440471861#0_1" arrivalPos="31.52" arrivalPosLat="-0.00" arrivalSpeed="27.96" duration="74.95" routeLength="1067.97" waitingTime="8.80" waitingCount="2" stopTime="0.00" timeLoss="35.24" rerouteNo="1" devices="tripinfo_D3_1.2 routing_D3_1.2" vType="car" speedFactor="1.01" vaporized=""/>
    <tripinfo id="D3_1.3" depart="103.40" departLane="140483224#1_1" departPos="2.30" departPosLat="0.00" departSpeed="28.96" departDelay="0.00" arrival="178.00" arrivalLane="-440471861#0_2" arrivalPos="31.52" arrivalPosLat="0.00" arrivalSpeed="27.89" duration="74.60" routeLength="1070.77" waitingTime="1.45" waitingCount="2" stopTime="0.00" timeLoss="36.14" rerouteNo="1" devices="tripinfo_D3_1.3 routing_D3_1.3" vType="tricycle" speedFactor="1.04" vaporized=""/>
    <personinfo id="pf_4.5" depart="75.00" type="ped" speedFactor="1.12" duration="106.45" waitingTime="0.80" timeLoss="11.46" traveltime="106.45">
        <walk depart="75.00" departPos="25.00" arrival="126.30" arrivalPos="29.11" duration="51.30" routeLength="72.15" timeLoss="5.10" maxSpeed="1.56" waitingTime="0.00"/>
        <walk depart="126.30" departPos="29.11" arrival="181.45" arrivalPos="29.05" duration="55.15" routeLength="76.20" timeLoss="6.36" maxSpeed="1.56" waitingTime="0.80"/>
    </personinfo>
    <tripinfo id="A1_1.0" depart="78.95" departLane="-793339796#2_1" departPos="2.30" departPosLat="0.00" departSpeed="26.46" departDelay="0.00" arrival="185.95" arrivalLane="-145894807#0_1" arrivalPos="260.95" arrivalPosLat="0.00" arrivalSpeed="7.90" duration="107.00" routeLength="1059.52" waitingTime="0.65" waitingCount="1" stopTime="0.00" timeLoss="12.90" rerouteNo="1" devices="tripinfo_A1_1.0 routing_A1_1.0" vType="tricycle" speedFactor="0.95" vaporized=""/>
    <personinfo id="pf_2.11" depart="165.00" type="ped" speedFactor="1.02" duration="24.05" waitingTime="0.00" timeLoss="2.36" traveltime="24.05">
        <walk depart="165.00" departPos="15.09" arrival="189.05" arrivalPos="3.44" duration="24.05" routeLength="30.72" timeLoss="2.36" maxSpeed="1.42" waitingTime="0.00"/>
    </personinfo>
    <tripinfo id="A3_1.3" depart="96.70" departLane="-793339796#2_2" departPos="8.10" departPosLat="0.00" departSpeed="24.21" departDelay="0.00" arrival="189.95" arrivalLane="-140483224#1_2" arrivalPos="64.04" arrivalPosLat="0.00" arrivalSpeed="27.76" duration="93.25" routeLength="1077.94" waitingTime="3.30" waitingCount="2" stopTime="0.00" timeLoss="52.93" rerouteNo="1" devices="tripinfo_A3_1.3 routing_A3_1.3" vType="jeep" speedFactor="1.00" vaporized=""/>
    <tripinfo id="A3_1.4" depart="103.80" departLane="-793339796#2_2" departPos="5.10" departPosLat="0.00" departSpeed="20.45" departDelay="0.00" arrival="191.20" arrivalLane="-140483224#1_2" arrivalPos="64.04" arrivalPosLat="0.00" arrivalSpeed="29.72" duration="87.40" routeLength="1080.94" waitingTime="0.00" waitingCount="0" stopTime="0.00" timeLoss="49.78" rerouteNo="1" devices="tripinfo_A3_1.4 routing_A3_1.4" vType="car" speedFactor="1.08" vaporized=""/>
    <tripinfo id="A3_1.6" depart="111.05" departLane="-793339796#2_2" departPos="5.10" departPosLat="0.00" departSpeed="22.46" departDelay="0.00" arrival="192.50" arrivalLane="-140483224#1_2" arrivalPos="64.04" arrivalPosLat="0.00" arrivalSpeed="27.28" duration="81.45" routeLength="1080.94" waitingTime="4.35" waitingCount="2" stopTime="0.00" timeLoss="40.39" rerouteNo="1" devices="tripinfo_A3_1.6 routing_A3_1.6" vType="car" speedFactor="0.98" vaporized=""/>
    <tripinfo id="C2_1.1" depart="27.30" departLane="440471861#0_2" departPos="2.30" departPosLat="0.00" departSpeed="28.06" departDelay="0.00" arrival="196.15" arrivalLane="-145894807#0_1" arrivalPos="260.95" arrivalPosLat="0.00" arrivalSpeed="8.41" duration="168.85" routeLength="1084.86" waitingTime="55.00" waitingCount="2" stopTime="0.00" timeLoss="84.36" rerouteNo="1" devices="tripinfo_C2_1.1 routing_C2_1.1" vType="tricycle" speedFactor="1.01" vaporized=""/>
    <tripinfo id="C1_1.1" depart="28.55" departLane="440471861#0_1" departPos="5.10" departPosLat="0.00" departSpeed="26.25" departDelay="0.00" arrival="201.65" arrivalLane="-793339796#2_2" arrivalPos="82.50" arrivalPosLat="0.00" arrivalSpeed="26.22" duration="173.10" routeLength="1653.99" waitingTime="47.55" waitingCount="2" stopTime="0.00" timeLoss="108.91" rerouteNo="1" devices="tripinfo_C1_1.1 routing_C1_1.1" vType="car" speedFactor="0.94" vaporized=""/>
    <tripinfo id="A2_1.6" depart="130.95" departLane="-793339796#2_1" departPos="5.10" departPosLat="0.00" departSpeed="16.05" departDelay="0.00" arrival="202.30" arrivalLane="-440471861#0_1" arrivalPos="31.52" arrivalPosLat="0.00" arrivalSpeed="26.25" duration="71.35" routeLength="1081.27" waitingTime="0.00" waitingCount="0" stopTime="0.00" timeLoss="30.23" rerouteNo="1" devices="tripinfo_A2_1.6 routing_A2_1.6" vType="car" speedFactor="0.95" vaporized=""/>
    <personinfo id="pf_2.12" depart="180.00" type="ped" speedFactor="0.97" duration="25.15" waitingTime="0.00" timeLoss="2.42" traveltime="25.15">
        <walk depart="180.00" departPos="15.09" arrival="205.15" arrivalPos="3.44" duration="25.15" routeLength="30.72" timeLoss="2.42" maxSpeed="1.35" waitingTime="0.00"/>
    </personinfo>
    <personinfo id="pf_4.6" depart="90.00" type="ped" speedFactor="1.01" duration="117.95" waitingTime="0.00" timeLoss="11.73" traveltime="117.95">
        <walk depart="90.00" departPos="25.00" arrival="147.35" arrivalPos="29.11" duration="57.35" routeLength="72.15" timeLoss="5.69" maxSpeed="1.40" waitingTime="0.00"/>
        <walk depart="147.35" departPos="29.11" arrival="207.95" arrivalPos="29.05" duration="60.60" routeLength="76.20" timeLoss="6.04" maxSpeed="1.40" waitingTime="0.00"/>
    </personinfo>
    <tripinfo id="A3_1.7" depart="113.80" departLane="-793339796#2_2" departPos="5.10" departPosLat="0.00" departSpeed="20.98" departDelay="0.00" arrival="214.65" arrivalLane="-140483224#1_2" arrivalPos="64.04" arrivalPosLat="0.00" arrivalSpeed="29.43" duration="100.85" routeLength="1080.94" waitingTime="19.10" waitingCount="3" stopTime="0.00" timeLoss="62.68" rerouteNo="1" devices="tripinfo_A3_1.7 routing_A3_1.7" vType="car" speedFactor="1.06" vaporized=""/>
    <personinfo id="pf_2.13" depart="195.00" type="ped" speedFactor="1.18" duration="20.60" waitingTime="0.00" timeLoss="1.85" traveltime="20.60">
        <walk depart="195.00" departPos="15.09" arrival="215.60" arrivalPos="3.44" duration="20.60" routeLength="30.72" timeLoss="1.85" maxSpeed="1.64" waitingTime="0.00"/>
    </personinfo>
    <personinfo id="pf_4.3" depart="45.00" type="ped" speedFactor="0.69" duration="171.65" waitingTime="0.00" timeLoss="16.94" traveltime="171.65">
        <walk depart="45.00" departPos="25.00" arrival="128.50" arrivalPos="29.11" duration="83.50" routeLength="72.15" timeLoss="8.26" maxSpeed="0.96" waitingTime="0.00"/>
        <walk depart="128.50" departPos="29.11" arrival="216.65" arrivalPos="29.05" duration="88.15" routeLength="76.20" timeLoss="8.68" maxSpeed="0.96" waitingTime="0.00"/>
    </personinfo>
    <tripinfo id="B1_1.0" depart="37.80" departLane="-361257727#0_1" departPos="5.10" departPosLat="0.00" departSpeed="7.39" departDelay="0.00" arrival="218.65" arrivalLane="-793339796#2_2" arrivalPos="82.50" arrivalPosLat="0.00" arrivalSpeed="24.63" duration="180.85" routeLength="1915.44" waitingTime="3.15" waitingCount="1" stopTime="0.00" timeLoss="29.10" rerouteNo="1" devices="tripinfo_B1_1.0 routing_B1_1.0" vType="car" speedFactor="0.89" vaporized=""/>
    <personinfo id="pf_4.7" depart="105.00" type="ped" speedFactor="1.01" duration="118.55" waitingTime="0.45" timeLoss="12.52" traveltime="118.55">
        <walk depart="105.00" departPos="25.00" arrival="162.55" arrivalPos="29.11" duration="57.55" routeLength="72.15" timeLoss="5.98" maxSpeed="1.40" waitingTime="0.00"/>
        <walk depart="162.55" departPos="29.11" arrival="223.55" arrivalPos="29.05" duration="61.00" routeLength="76.20" timeLoss="6.54" maxSpeed="1.40" waitingTime="0.45"/>
    </personinfo>
    <tripinfo id="D1_1.3" depart="58.55" departLane="140483224#1_1" departPos="5.10" departPosLat="0.00" departSpeed="27.81" departDelay="0.00" arrival="224.15" arrivalLane="-793339796#2_2" arrivalPos="82.50" arrivalPosLat="0.00" arrivalSpeed="27.77" duration="165.60" routeLength="1648.38" waitingTime="46.00" waitingCount="2" stopTime="0.00" timeLoss="103.95" rerouteNo="1" devices="tripinfo_D1_1.3 routing_D1_1.3" vType="car" speedFactor="1.00" vaporized=""/>
    <tripinfo id="D1_1.2" depart="46.15" departLane="140483224#1_1" departPos="5.10" departPosLat="0.00" departSpeed="27.03" departDelay="0.00" arrival="225.05" arrivalLane="-793339796#2_1" arrivalPos="82.50" arrivalPosLat="0.00" arrivalSpeed="9.23" duration="178.90" routeLength="1648.38" waitingTime="66.50" waitingCount="3" stopTime="0.00" timeLoss="115.51" rerouteNo="1" devices="tripinfo_D1_1.2 routing_D1_1.2" vType="car" speedFactor="0.97" vaporized=""/>
    <personinfo id="pf_4.8" depart="120.00" type="ped" speedFactor="1.09" duration="108.45" waitingTime="0.00" timeLoss="10.76" traveltime="108.45">
        <walk depart="120.00" departPos="25.00" arrival="172.55" arrivalPos="29.11" duration="52.55" routeLength="72.15" timeLoss="5.04" maxSpeed="1.52" waitingTime="0.00"/>
        <walk depart="172.55" departPos="29.11" arrival="228.45" arrivalPos="29.05" duration="55.90" routeLength="76.20" timeLoss="5.72" maxSpeed="1.52" waitingTime="0.00"/>
    </personinfo>
    <tripinfo id="D2_1.1" depart="46.85" departLane="140483224#1_1" departPos="5.10" departPosLat="0.00" departSpeed="21.17" departDelay="0.00" arrival="229.00" arrivalLane="-145894807#0_1" arrivalPos="260.95" arrivalPosLat="0.00" arrivalSpeed="6.32" duration="182.15" routeLength="1092.76" waitingTime="52.35" waitingCount="3" stopTime="0.00" timeLoss="70.23" rerouteNo="1" devices="tripinfo_D2_1.1 routing_D2_1.1" vType="car" speedFactor="0.76" vaporized=""/>
    <tripinfo id="D2_1.2" depart="67.40" departLane="140483224#1_1" departPos="5.10" departPosLat="0.00" departSpeed="27.74" departDelay="0.00" arrival="230.80" arrivalLane="-145894807#0_1" arrivalPos="260.95" arrivalPosLat="0.00" arrivalSpeed="8.32" duration="163.40" routeLength="1092.76" waitingTime="46.90" waitingCount="2" stopTime="0.00" timeLoss="77.99" rerouteNo="1" devices="tripinfo_D2_1.2 routing_D2_1.2" vType="car" speedFactor="1.00" vaporized=""/>
    <personinfo id="pf_2.14" depart="210.00" type="ped" speedFactor="1.10" duration="22.25" waitingTime="0.00" timeLoss="2.18" traveltime="22.25">
        <walk depart="210.00" departPos="15.09" arrival="232.25" arrivalPos="3.44" duration="22.25" routeLength="30.72" timeLoss="2.18" maxSpeed="1.53" waitingTime="0.00"/>
    </personinfo>
    <tripinfo id="A1_1.1" depart="125.65" departLane="-793339796#2_1" departPos="8.10" departPosLat="0.00" departSpeed="20.49" departDelay="0.00" arrival="232.80" arrivalLane="-145894807#0_1" arrivalPos="260.95" arrivalPosLat="0.00" arrivalSpeed="8.32" duration="107.15" routeLength="1053.72" waitingTime="0.00" waitingCount="0" stopTime="0.00" timeLoss="17.77" rerouteNo="1" devices="tripinfo_A1_1.1 routing_A1_1.1" vType="jeep" speedFactor="1.00" vaporized=""/>
    <tripinfo id="C3_1.3" depart="54.65" departLane="440471861#0_1" departPos="5.10" departPosLat="0.00" departSpeed="29.67" departDelay="0.00" arrival="233.25" arrivalLane="-140483224#1_2" arrivalPos="64.04" arrivalPosLat="0.00" arrivalSpeed="29.63" duration="178.60" routeLength="1052.78" waitingTime="101.30" waitingCount="4" stopTime="0.00" timeLoss="141.89" rerouteNo="1" devices="tripinfo_C3_1.3 routing_C3_1.3" vType="car" speedFactor="1.07" vaporized=""/>
    <tripinfo id="B3_1.0" depart="63.85" departLane="-361257727#0_1" departPos="8.10" departPosLat="0.00" departSpeed="8.33" departDelay="0.00" arrival="244.35" arrivalLane="-140483224#1_1" arrivalPos="64.04" arrivalPosLat="0.00" arrivalSpeed="27.77" duration="180.50" routeLength="1407.94" waitingTime="34.00" waitingCount="2" stopTime="0.00" timeLoss="63.60" rerouteNo="1" devices="tripinfo_B3_1.0 routing_B3_1.0" vType="jeep" speedFactor="1.00" vaporized=""/>
    <personinfo id="pf_4.9" depart="135.00" type="ped" speedFactor="1.07" duration="110.35" waitingTime="0.00" timeLoss="10.87" traveltime="110.35">