<?xml version="1.0" encoding="UTF-8"?>

<!-- generated on 2025-12-03 15:13:39 by Eclipse SUMO GUI Version 1.24.0
<sumoConfiguration xmlns:xsi="http://www.w3.org/2001/XMLSchema-instance" xsi:noNamespaceSchemaLocation="http://sumo.dlr.de/xsd/sumoConfiguration.xsd">

    <input>
        <net-file value="Olivarez_traci\network/baseline.net.xml"/>
        <route-files value="Olivarez_traci\demand/flows_traffic_jam.rou.xml"/>
        <additional-files value="Olivarez_traci\additionals/map.poly.xml,Olivarez_traci\ additionals/detectors.add.xml"/>
    </input>

    <output>
        <tripinfo-output value="Olivarez_traci\output_DQN\BP_DQN_trips.xml"/>
        <statistic-output value="Olivarez_traci\output_DQN\BP_DQN_stats.xml"/>
    </output>

    <time>
        <begin value="0"/>
        <end value="10800"/>
        <step-length value="0.05"/>
    </time>

    <processing>
        <lateral-resolution value="0.1"/>
        <collision.action value="none"/>
        <collision.check-junctions value="false"/>
        <collision.mingap-factor value="0"/>
    </processing>

    <report>
        <no-warnings value="true"/>
    </report>

    <traci_server>
        <remote-port value="53240"/>
    </traci_server>

    <gui_only>
        <delay value="100"/>
    </gui_only>

</sumoConfiguration>
-->

<tripinfos xmlns:xsi="http://www.w3.org/2001/XMLSchema-instance" xsi:noNamespaceSchemaLocation="http://sumo.dlr.de/xsd/tripinfo_file.xsd">
    <personinfo id="pf_2.0" depart="0.00" type="ped" speedFactor="0.83" duration="29.80" waitingTime="0.00" timeLoss="3.01" traveltime="29.80">
        <walk depart="0.00" departPos="15.09" arrival="29.80" arrivalPos="3.44" duration="29.80" routeLength="30.72" timeLoss="3.01" maxSpeed="1.15" waitingTime="0.00"/>
    </personinfo>
    <personinfo id="pf_2.1" depart="15.00" type="ped" speedFactor="0.87" duration="28.10" waitingTime="0.00" timeLoss="2.75" traveltime="28.10">
        <walk depart="15.00" departPos="15.09" arrival="43.10" arrivalPos="3.44" duration="28.10" routeLength="30.72" timeLoss="2.75" maxSpeed="1.21" waitingTime="0.00"/>
    </personinfo>
    <personinfo id="pf_2.2" depart="30.00" type="ped" speedFactor="0.92" duration="26.75" waitingTime="0.00" timeLoss="2.63" traveltime="26.75">
        <walk depart="30.00" departPos="15.09" arrival="56.75" arrivalPos="3.44" duration="26.75" routeLength="30.72" timeLoss="2.63" maxSpeed="1.27" waitingTime="0.00"/>
    </personinfo>
    <tripinfo id="A2_1.1" depart="8.20" departLane="-793339796#2_2" departPos="2.30" departPosLat="0.00" departSpeed="29.35" departDelay="0.00" arrival="61.05" arrivalLane="-440471861#0_2" arrivalPos="31.52" arrivalPosLat="0.00" arrivalSpeed="29.24" duration="52.85" routeLength="1084.07" waitingTime="1.10" waitingCount="1" stopTime="0.00" timeLoss="15.89" rerouteNo="1" devices="tripinfo_A2_1.1 routing_A2_1.1" vType="motorcycle" speedFactor="1.06" vaporized=""/>
    <personinfo id="pf_2.3" depart="45.00" type="ped" speedFactor="0.95" duration="25.80" waitingTime="0.00" timeLoss="2.49" traveltime="25.80">
        <walk depart="45.00" departPos="15.09" arrival="70.80" arrivalPos="3.44" duration="25.80" routeLength="30.72" timeLoss="2.49" maxSpeed="1.32" waitingTime="0.00"/>
    </personinfo>
    <tripinfo id="A2_1.0" depart="4.45" departLane="-793339796#2_1" departPos="5.10" departPosLat="0.00" departSpeed="26.27" departDelay="0.00" arrival="75.20" arrivalLane="-440471861#0_2" arrivalPos="31.52" arrivalPosLat="0.00" arrivalSpeed="29.31" duration="70.75" routeLength="1081.27" waitingTime="0.00" waitingCount="0" stopTime="0.00" timeLoss="33.89" rerouteNo="1" devices="tripinfo_A2_1.0 routing_A2_1.0" vType="car" speedFactor="1.06" vaporized=""/>
    <personinfo id="pf_2.4" depart="60.00" type="ped" speedFactor="1.13" duration="21.60" waitingTime="0.00" timeLoss="2.06" traveltime="21.60">
        <walk depart="60.00" departPos="15.09" arrival="81.60" arrivalPos="3.44" duration="21.60" routeLength="30.72" timeLoss="2.06" maxSpeed="1.57" waitingTime="0.00"/>
    </personinfo>
    <personinfo id="pf_2.5" depart="75.00" type="ped" speedFactor="0.93" duration="26.30" waitingTime="0.00" timeLoss="2.55" traveltime="26.30">
        <walk depart="75.00" departPos="15.09" arrival="101.30" arrivalPos="3.44" duration="26.30" routeLength="30.72" timeLoss="2.55" maxSpeed="1.29" waitingTime="0.00"/>
    </personinfo>
    <personinfo id="pf_4.0" depart="0.00" type="ped" speedFactor="1.11" duration="107.00" waitingTime="0.00" timeLoss="10.80" traveltime="107.00">
        <walk depart="0.00" departPos="25.00" arrival="51.95" arrivalPos="29.11" duration="51.95" routeLength="72.15" timeLoss="5.16" maxSpeed="1.54" waitingTime="0.00"/>
        <walk depart="51.95" departPos="29.11" arrival="107.00" arrivalPos="29.05" duration="55.05" routeLength="76.20" timeLoss="5.64" maxSpeed="1.54" waitingTime="0.00"/>
    </personinfo>
    <personinfo id="pf_2.6" depart="90.00" type="ped" speedFactor="1.18" duration="20.80" waitingTime="0.00" timeLoss="2.03" traveltime="20.80">
        <walk depart="90.00" departPos="15.09" arrival="110.80" arrivalPos="3.44" duration="20.80" routeLength="30.72" timeLoss="2.03" maxSpeed="1.64" waitingTime="0.00"/>
    </personinfo>
    <tripinfo id="D3_1.0" depart="7.65" departLane="140483224#1_2" departPos="5.10" departPosLat="0.00" departSpeed="27.02" departDelay="0.00" arrival="112.75" arrivalLane="-440471861#0_2" arrivalPos="31.52" arrivalPosLat="0.00" arrivalSpeed="26.98" duration="105.10" routeLength="1067.97" waitingTime="42.55" waitingCount="1" stopTime="0.00" timeLoss="64.01" rerouteNo="1" devices="tripinfo_D3_1.0 routing_D3_1.0" vType="car" speedFactor="0.97" vaporized=""/>
    <tripinfo id="C3_1.0" depart="11.40" departLane="440471861#0_1" departPos="12.10" departPosLat="0.00" departSpeed="27.78" departDelay="0.00" arrival="117.30" arrivalLane="-140483224#1_2" arrivalPos="64.04" arrivalPosLat="0.00" arrivalSpeed="27.78" duration="105.90" routeLength="1045.78" waitingTime="25.55" waitingCount="1" stopTime="0.00" timeLoss="66.91" rerouteNo="1" devices="tripinfo_C3_1.0 routing_C3_1.0" vType="bus" speedFactor="1.00" vaporized=""/>
    <personinfo id="pf_2.7" depart="105.00" type="ped" speedFactor="1.15" duration="21.15" waitingTime="0.00" timeLoss="1.99" traveltime="21.15">
        <walk depart="105.00" departPos="15.09" arrival="126.15" arrivalPos="3.44" duration="21.15" routeLength="30.72" timeLoss="1.99" maxSpeed="1.60" waitingTime="0.00"/>
    </personinfo>
    <tripinfo id="A2_1.2" depart="20.70" departLane="-793339796#2_1" departPos="2.30" departPosLat="0.00" departSpeed="26.42" departDelay="0.00" arrival="127.50" arrivalLane="-440471861#0_1" arrivalPos="31.52" arrivalPosLat="-0.00" arrivalSpeed="26.38" duration="106.80" routeLength="1084.07" waitingTime="37.90" waitingCount="1" stopTime="0.00" timeLoss="65.74" rerouteNo="1" devices="tripinfo_A2_1.2 routing_A2_1.2" vType="tricycle" speedFactor="0.95" vaporized=""/>
    <tripinfo id="D1_1.0" depart="0.60" departLane="140483224#1_1" departPos="5.10" departPosLat="0.00" departSpeed="24.93" departDelay="0.00" arrival="128.85" arrivalLane="-793339796#2_1" arrivalPos="82.50" arrivalPosLat="0.00" arrivalSpeed="24.89" duration="128.25" routeLength="1648.38" waitingTime="26.75" waitingCount="2" stopTime="0.00" timeLoss="59.47" rerouteNo="1" devices="tripinfo_D1_1.0 routing_D1_1.0" vType="car" speedFactor="0.90" vaporized=""/>
    <tripinfo id="C3_1.1" depart="23.60" departLane="440471861#0_1" departPos="7.20" departPosLat="0.00" departSpeed="26.64" departDelay="0.00" arrival="131.15" arrivalLane="-140483224#1_2" arrivalPos="64.04" arrivalPosLat="0.00" arrivalSpeed="26.62" duration="107.55" routeLength="1050.68" waitingTime="17.25" waitingCount="3" stopTime="0.00" timeLoss="66.72" rerouteNo="1" devices="tripinfo_C3_1.1 routing_C3_1.1" vType="truck" speedFactor="0.96" vaporized=""/>
    <personinfo id="pf_4.1" depart="15.00" type="ped" speedFactor="1.02" duration="116.65" waitingTime="0.00" timeLoss="11.46" traveltime="116.65">
        <walk depart="15.00" departPos="25.00" arrival="71.65" arrivalPos="29.11" duration="56.65" routeLength="72.15" timeLoss="5.49" maxSpeed="1.41" waitingTime="0.00"/>
        <walk depart="71.65" departPos="29.11" arrival="131.65" arrivalPos="29.05" duration="60.00" routeLength="76.20" timeLoss="5.97" maxSpeed="1.41" waitingTime="0.00"/>
    </personinfo>
    <tripinfo id="A3_1.0" depart="15.50" departLane="-793339796#2_2" departPos="5.10" departPosLat="0.00" departSpeed="26.19" departDelay="0.00" arrival="132.10" arrivalLane="-140483224#1_1" arrivalPos="64.04" arrivalPosLat="-0.00" arrivalSpeed="27.35" duration="116.60" routeLength="1080.94" waitingTime="28.75" waitingCount="4" stopTime="0.00" timeLoss="75.56" rerouteNo="1" devices="tripinfo_A3_1.0 routing_A3_1.0" vType="car" speedFactor="0.99" vaporized=""/>
    <personinfo id="pf_2.8" depart="120.00" type="ped" speedFactor="1.01" duration="24.35" waitingTime="0.00" timeLoss="2.34" traveltime="24.35">
        <walk depart="120.00" departPos="15.09" arrival="144.35" arrivalPos="3.44" duration="24.35" routeLength="30.72" timeLoss="2.34" maxSpeed="1.40" waitingTime="0.00"/>
    </personinfo>
    <personinfo id="pf_4.2" depart="30.00" type="ped" speedFactor="1.01" duration="117.30" waitingTime="0.00" timeLoss="11.62" traveltime="117.30">
        <walk depart="30.00" departPos="25.00" arrival="86.95" arrivalPos="29.11" duration="56.95" routeLength="72.15" timeLoss="5.55" maxSpeed="1.40" waitingTime="0.00"/>
        <walk depart="86.95" departPos="29.11" arrival="147.30" arrivalPos="29.05" duration="60.35" routeLength="76.20" timeLoss="6.07" maxSpeed="1.40" waitingTime="0.00"/>
    </personinfo>
    <tripinfo id="B2_1.0" depart="6.95" departLane="-361257727#0_1" departPos="5.10" departPosLat="0.00" departSpeed="8.38" departDelay="0.00" arrival="148.20" arrivalLane="-440471861#0_2" arrivalPos="31.52" arrivalPosLat="0.00" arrivalSpeed="27.90" duration="141.25" routeLength="1397.68" waitingTime="4.20" waitingCount="1" stopTime="0.00" timeLoss="24.97" rerouteNo="1" devices="tripinfo_B2_1.0 routing_B2_1.0" vType="car" speedFactor="1.01" vaporized=""/>
    <tripinfo id="A2_1.3" depart="27.05" departLane="-793339796#2_1" departPos="7.20" departPosLat="0.00" departSpeed="24.43" departDelay="0.00" arrival="149.55" arrivalLane="-440471861#0_1" arrivalPos="31.52" arrivalPosLat="0.00" arrivalSpeed="21.97" duration="122.50" routeLength="1079.17" waitingTime="24.70" waitingCount="1" stopTime="0.00" timeLoss="83.52" rerouteNo="1" devices="tripinfo_A2_1.3 routing_A2_1.3" vType="truck" speedFactor="1.00" vaporized=""/>
    <personinfo id="pf_2.9" depart="135.00" type="ped" speedFactor="1.17" duration="20.90" waitingTime="0.00" timeLoss="2.02" traveltime="20.90">
        <walk depart="135.00" departPos="15.09" arrival="155.90" arrivalPos="3.44" duration="20.90" routeLength="30.72" timeLoss="2.02" maxSpeed="1.63" waitingTime="0.00"/>
    </personinfo>
    <tripinfo id="C3_1.2" depart="43.55" departLane="440471861#0_1" departPos="5.10" departPosLat="0.00" departSpeed="27.06" departDelay="0.00" arrival="158.60" arrivalLane="-140483224#1_2" arrivalPos="64.04" arrivalPosLat="0.00" arrivalSpeed="31.74" duration="115.05" routeLength="1052.78" waitingTime="42.70" waitingCount="1" stopTime="0.00" timeLoss="80.77" rerouteNo="1" devices="tripinfo_C3_1.2 routing_C3_1.2" vType="car" speedFactor="1.14" vaporized=""/>
    <tripinfo id="A3_1.1" depart="30.50" departLane="-793339796#2_2" departPos="12.10" departPosLat="0.00" departSpeed="23.55" departDelay="0.00" arrival="163.30" arrivalLane="-140483224#1_2" arrivalPos="64.04" arrivalPosLat="0.00" arrivalSpeed="27.77" duration="132.80" routeLength="1073.94" waitingTime="29.15" waitingCount="5" stopTime="0.00" timeLoss="92.66" rerouteNo="1" devices="tripinfo_A3_1.1 routing_A3_1.1" vType="bus" speedFactor="1.00" vaporized=""/>
    <tripinfo id="C3_1.3" depart="54.65" departLane="440471861#0_1" departPos="5.10" departPosLat="0.00" departSpeed="29.67" departDelay="0.00" arrival="164.70" arrivalLane="-140483224#1_2" arrivalPos="64.04" arrivalPosLat="0.00" arrivalSpeed="29.63" duration="110.05" routeLength="1052.78" waitingTime="38.80" waitingCount="1" stopTime="0.00" timeLoss="73.32" rerouteNo="1" devices="tripinfo_C3_1.3 routing_C3_1.3" vType="car" speedFactor="1.07" vaporized=""/>
    <tripinfo id="D3_1.1" depart="89.80" departLane="140483224#1_2" departPos="5.10" departPosLat="0.00" departSpeed="25.66" departDelay="0.00" arrival="168.45" arrivalLane="-440471861#0_2" arrivalPos="31.52" arrivalPosLat="0.00" arrivalSpeed="25.64" duration="78.65" routeLength="1067.97" waitingTime="12.30" waitingCount="2" stopTime="0.00" timeLoss="35.36" rerouteNo="1" devices="tripinfo_D3_1.1 routing_D3_1.1" vType="car" speedFactor="0.92" vaporized=""/>
    <tripinfo id="D3_1.2" depart="100.85" departLane="140483224#1_2" departPos="5.10" departPosLat="0.00" departSpeed="27.97" departDelay="0.00" arrival="170.75" arrivalLane="-440471861#0_1" arrivalPos="31.52" arrivalPosLat="-0.00" arrivalSpeed="27.94" duration="69.90" routeLength="1067.97" waitingTime="4.95" waitingCount="1" stopTime="0.00" timeLoss="30.18" rerouteNo="1" devices="tripinfo_D3_1.2 routing_D3_1.2" vType="car" speedFactor="1.01" vaporized=""/>
    <personinfo id="pf_4.4" depart="60.00" type="ped" speedFactor="1.05" duration="113.15" waitingTime="0.00" timeLoss="11.08" traveltime="113.15">
        <walk depart="60.00" departPos="25.00" arrival="115.00" arrivalPos="29.11" duration="55.00" routeLength="72.15" timeLoss="5.36" maxSpeed="1.45" waitingTime="0.00"/>
        <walk depart="115.00" departPos="29.11" arrival="173.15" arrivalPos="29.05" duration="58.15" routeLength="76.20" timeLoss="5.72" maxSpeed="1.45" waitingTime="0.00"/>
    </personinfo>
    <personinfo id="pf_2.10" depart="150.00" type="ped" speedFactor="0.99" duration="24.55" waitingTime="0.00" timeLoss="2.31" traveltime="24.55">
        <walk depart="150.00" departPos="15.09" arrival="174.55" arrivalPos="3.44" duration="24.55" routeLength="30.72" timeLoss="2.31" maxSpeed="1.38" waitingTime="0.00"/>
    </personinfo>
    <tripinfo id="C3_1.4" depart="78.25" departLane="440471861#0_1" departPos="5.10" departPosLat="0.00" departSpeed="23.65" departDelay="0.00" arrival="174.60" arrivalLane="-140483224#1_2" arrivalPos="64.04" arrivalPosLat="0.00" arrivalSpeed="23.64" duration="96.35" routeLength="1052.78" waitingTime="17.85" waitingCount="1" stopTime="0.00" timeLoss="50.23" rerouteNo="1" devices="tripinfo_C3_1.4 routing_C3_1.4" vType="car" speedFactor="0.85" vaporized=""/>
    <tripinfo id="D3_1.3" depart="103.40" departLane="140483224#1_1" departPos="2.30" departPosLat="0.00" departSpeed="28.96" departDelay="0.00" arrival="175.20" arrivalLane="-440471861#0_2" arrivalPos="31.52" arrivalPosLat="0.00" arrivalSpeed="28.25" duration="71.80" routeLength="1070.77" waitingTime="1.95" waitingCount="2" stopTime="0.00" timeLoss="33.35" rerouteNo="1" devices="tripinfo_D3_1.3 routing_D3_1.3" vType="tricycle" speedFactor="1.04" vaporized=""/>
    <personinfo id="pf_4.5" depart="75.00" type="ped" speedFactor="1.12" duration="106.40" waitingTime="0.80" timeLoss="11.41" traveltime="106.40">
        <walk depart="75.00" departPos="25.00" arrival="126.30" arrivalPos="29.11" duration="51.30" routeLength="72.15" timeLoss="5.10" maxSpeed="1.56" waitingTime="0.00"/>
        <walk depart="126.30" departPos="29.11" arrival="181.40" arrivalPos="29.05" duration="55.10" routeLength="76.20" timeLoss="6.31" maxSpeed="1.56" waitingTime="0.80"/>
    </personinfo>
    <tripinfo id="A2_1.4" depart="62.90" departLane="-793339796#2_1" departPos="5.10" departPosLat="0.00" departSpeed="26.27" departDelay="0.00" arrival="183.30" arrivalLane="-440471861#0_2" arrivalPos="31.52" arrivalPosLat="0.00" arrivalSpeed="27.18" duration="120.40" routeLength="1081.27" waitingTime="41.45" waitingCount="3" stopTime="0.00" timeLoss="80.66" rerouteNo="1" devices="tripinfo_A2_1.4 routing_A2_1.4" vType="car" speedFactor="0.98" vaporized=""/>
    <tripinfo id="A1_1.0" depart="78.95" departLane="-793339796#2_1" departPos="2.30" departPosLat="0.00" departSpeed="26.46" departDelay="0.00" arrival="186.00" arrivalLane="-145894807#0_1" arrivalPos="260.95" arrivalPosLat="0.00" arrivalSpeed="7.92" duration="107.05" routeLength="1059.52" waitingTime="0.65" waitingCount="1" stopTime="0.00" timeLoss="13.02" rerouteNo="1" devices="tripinfo_A1_1.0 routing_A1_1.0" vType="tricycle" speedFactor="0.95" vaporized=""/>
    <personinfo id="pf_2.11" depart="165.00" type="ped" speedFactor="1.02" duration="24.05" waitingTime="0.00" timeLoss="2.36" traveltime="24.05">
        <walk depart="165.00" departPos="15.09" arrival="189.05" arrivalPos="3.44" duration="24.05" routeLength="30.72" timeLoss="2.36" maxSpeed="1.42" waitingTime="0.00"/>
    </personinfo>
    <tripinfo id="A3_1.2" depart="63.55" departLane="-793339796#2_2" departPos="7.20" departPosLat="0.00" departSpeed="24.36" departDelay="0.00" arrival="192.30" arrivalLane="-140483224#1_2" arrivalPos="64.04" arrivalPosLat="0.00" arrivalSpeed="28.28" duration="128.75" routeLength="1078.84" waitingTime="34.75" waitingCount="2" stopTime="0.00" timeLoss="89.11" rerouteNo="1" devices="tripinfo_A3_1.2 routing_A3_1.2" vType="truck" speedFactor="1.02" vaporized=""/>
    <tripinfo id="A3_1.3" depart="96.70" departLane="-793339796#2_2" departPos="8.10" departPosLat="0.00" departSpeed="24.21" departDelay="0.00" arrival="194.50" arrivalLane="-140483224#1_1" arrivalPos="64.04" arrivalPosLat="-0.00" arrivalSpeed="27.75" duration="97.80" routeLength="1077.94" waitingTime="4.50" waitingCount="3" stopTime="0.00" timeLoss="57.47" rerouteNo="1" devices="tripinfo_A3_1.3 routing_A3_1.3" vType="jeep" speedFactor="1.00" vaporized=""/>
    <tripinfo id="B2_1.1" depart="31.00" departLane="-361257727#0_1" departPos="2.30" departPosLat="0.00" departSpeed="9.48" departDelay="0.00" arrival="203.95" arrivalLane="-440471861#0_2" arrivalPos="31.52" arrivalPosLat="0.00" arrivalSpeed="27.76" duration="172.95" routeLength="1400.48" waitingTime="46.90" waitingCount="1" stopTime="0.00" timeLoss="69.82" rerouteNo="1" devices="tripinfo_B2_1.1 routing_B2_1.1" vType="tricycle" speedFactor="1.14" vaporized=""/>
    <tripinfo id="A2_1.5" depart="64.95" departLane="-793339796#2_1" departPos="7.20" departPosLat="0.00" departSpeed="19.70" departDelay="0.00" arrival="205.10" arrivalLane="-440471861#0_1" arrivalPos="31.52" arrivalPosLat="0.00" arrivalSpeed="22.12" duration="140.15" routeLength="1079.17" waitingTime="34.30" waitingCount="1" stopTime="0.00" timeLoss="96.78" rerouteNo="1" devices="tripinfo_A2_1.5 routing_A2_1.5" vType="truck" speedFactor="0.90" vaporized=""/>
    <personinfo id="pf_2.12" depart="180.00" type="ped" speedFactor="0.97" duration="25.25" waitingTime="0.00" timeLoss="2.52" traveltime="25.25">
        <walk depart="180.00" departPos="15.09" arrival="205.25" arrivalPos="3.44" duration="25.25" routeLength="30.72" timeLoss="2.52" maxSpeed="1.35" waitingTime="0.00"/>
    </personinfo>
    <personinfo id="pf_4.6" depart="90.00" type="ped" speedFactor="1.01" duration="117.95" waitingTime="0.00" timeLoss="11.73" traveltime="117.95">
        <walk depart="90.00" departPos="25.00" arrival="147.35" arrivalPos="29.11" duration="57.35" routeLength="72.15" timeLoss="5.69" maxSpeed="1.40" waitingTime="0.00"/>
        <walk depart="147.35" departPos="29.11" arrival="207.95" arrivalPos="29.05" duration="60.60" routeLength="76.20" timeLoss="6.04" maxSpeed="1.40" waitingTime="0.00"/>
    </personinfo>
    <personinfo id="pf_2.13" depart="195.00" type="ped" speedFactor="1.18" duration="20.75" waitingTime="0.00" timeLoss="2.00" traveltime="20.75">
        <walk depart="195.00" departPos="15.09" arrival="215.75" arrivalPos="3.44" duration="20.75" routeLength="30.72" timeLoss="2.00" maxSpeed="1.64" waitingTime="0.00"/>
    </personinfo>
    <personinfo id="pf_4.3" depart="45.00" type="ped" speedFactor="0.69" duration="171.70" waitingTime="0.00" timeLoss="16.99" traveltime="171.70">
        <walk depart="45.00" departPos="25.00" arrival="128.50" arrivalPos="29.11" duration="83.50" routeLength="72.15" timeLoss="8.26" maxSpeed="0.96" waitingTime="0.00"/>
        <walk depart="128.50" departPos="29.11" arrival="216.70" arrivalPos="29.05" duration="88.20" routeLength="76.20" timeLoss="8.73" maxSpeed="0.96" waitingTime="0.00"/>
    </personinfo>
    <tripinfo id="B1_1.0" depart="37.80" departLane="-361257727#0_1" departPos="5.10" departPosLat="0.00" departSpeed="7.39" departDelay="0.00" arrival="218.60" arrivalLane="-793339796#2_2" arrivalPos="82.50" arrivalPosLat="0.00" arrivalSpeed="24.63" duration="180.80" routeLength="1915.44" waitingTime="3.35" waitingCount="1" stopTime="0.00" timeLoss="29.08" rerouteNo="1" devices="tripinfo_B1_1.0 routing_B1_1.0" vType="car" speedFactor="0.89" vaporized=""/>
    <tripinfo id="C1_1.4" depart="71.00" departLane="440471861#0_1" departPos="5.10" departPosLat="0.00" departSpeed="28.30" departDelay="0.00" arrival="220.95" arrivalLane="-793339796#2_2" arrivalPos="82.50" arrivalPosLat="0.00" arrivalSpeed="28.24" duration="149.95" routeLength="1653.99" waitingTime="26.95" waitingCount="2" stopTime="0.00" timeLoss="90.38" rerouteNo="1" devices="tripinfo_C1_1.4 routing_C1_1.4" vType="car" speedFactor="1.02" vaporized=""/>
    <personinfo id="pf_4.7" depart="105.00" type="ped" speedFactor="1.01" duration="118.60" waitingTime="0.50" timeLoss="12.57" traveltime="118.60">
        <walk depart="105.00" departPos="25.00" arrival="162.55" arrivalPos="29.11" duration="57.55" routeLength="72.15" timeLoss="5.98" maxSpeed="1.40" waitingTime="0.00"/>
        <walk depart="162.55" departPos="29.11" arrival="223.60" arrivalPos="29.05" duration="61.05" routeLength="76.20" timeLoss="6.59" maxSpeed="1.40" waitingTime="0.50"/>
    </personinfo>
    <tripinfo id="C1_1.1" depart="28.55" departLane="440471861#0_1" departPos="5.10" departPosLat="0.00" departSpeed="26.25" departDelay="0.00" arrival="224.60" arrivalLane="-793339796#2_2" arrivalPos="82.50" arrivalPosLat="0.00" arrivalSpeed="26.19" duration="196.05" routeLength="1653.99" waitingTime="65.55" waitingCount="3" stopTime="0.00" timeLoss="131.81" rerouteNo="1" devices="tripinfo_C1_1.1 routing_C1_1.1" vType="car" speedFactor="0.94" vaporized=""/>
    <personinfo id="pf_4.8" depart="120.00" type="ped" speedFactor="1.09" duration="108.50" waitingTime="0.00" timeLoss="10.81" traveltime="108.50">
        <walk depart="120.00" departPos="25.00" arrival="172.55" arrivalPos="29.11" duration="52.55" routeLength="72.15" timeLoss="5.04" maxSpeed="1.52" waitingTime="0.00"/>
        <walk depart="172.55" departPos="29.11" arrival="228.50" arrivalPos="29.05" duration="55.95" routeLength="76.20" timeLoss="5.77" maxSpeed="1.52" waitingTime="0.00"/>
    </personinfo>
    <personinfo id="pf_2.14" depart="210.00" type="ped" speedFactor="1.10" duration="22.25" waitingTime="0.00" timeLoss="2.18" traveltime="22.25">
        <walk depart="210.00" departPos="15.09" arrival="232.25" arrivalPos="3.44" duration="22.25" routeLength="30.72" timeLoss="2.18" maxSpeed="1.53" waitingTime="0.00"/>
    </personinfo>
    <tripinfo id="A1_1.1" depart="126.00" departLane="-793339796#2_1" departPos="8.10" departPosLat="0.00" departSpeed="16.27" departDelay="0.35" arrival="233.10" arrivalLane="-145894807#0_1" arrivalPos="260.95" arrivalPosLat="0.00" arrivalSpeed="8.31" duration="107.10" routeLength="1053.72" waitingTime="0.00" waitingCount="0" stopTime="0.00" timeLoss="17.68" rerouteNo="1" devices="tripinfo_A1_1.1 routing_A1_1.1" vType="jeep" speedFactor="1.00" vaporized=""/>
    <tripinfo id="C3_1.5" depart="104.00" departLane="440471861#0_1" departPos="5.10" departPosLat="0.00" departSpeed="27.88" departDelay="0.00" arrival="233.30" arrivalLane="-140483224#1_2" arrivalPos="64.04" arrivalPosLat="0.00" arrivalSpeed="27.83" duration="129.30" routeLength="1052.78" waitingTime="56.50" waitingCount="2" stopTime="0.00" timeLoss="90.22" rerouteNo="1" devices="tripinfo_C3_1.5 routing_C3_1.5" vType="car" speedFactor="1.00" vaporized=""/>
    <personinfo id="pf_1.0" depart="0.00" type="ped" speedFactor="1.06" duration="235.15" waitingTime="0.00" timeLoss="23.45" traveltime="235.15">
        <walk depart="0.00" departPos="25.00" arrival="235.15" arrivalPos="3.44" duration="235.15" routeLength="311.67" timeLoss="23.45" maxSpeed="1.47" waitingTime="0.00"/>
    </personinfo>
    <tripinfo id="B3_1.0" depart="63.85" departLane="-361257727#0_1" departPos="8.10" departPosLat="0.00" departSpeed="8.33" departDelay="0.00" arrival="243.70" arrivalLane="-140483224#1_1" arrivalPos="64.04" arrivalPosLat="0.00" arrivalSpeed="27.76" duration="179.85" routeLength="1407.94" waitingTime="32.00" waitingCount="1" stopTime="0.00" timeLoss="62.97" rerouteNo="1" devices="tripinfo_B3_1.0 routing_B3_1.0" vType="jeep" speedFactor="1.00" vaporized=""/>
    <personinfo id="pf_4.9" depart="135.00" type="ped" speedFactor="1.07" duration="110.20" waitingTime="0.00" timeLoss="10.72" traveltime="110.20">
        <walk depart="135.00" departPos="25.00" arrival="188.50" arrivalPos="29.11" duration="53.50" routeLength="72.15" timeLoss="5.12" maxSpeed="1.49" waitingTime="0.00"/>
        <walk depart="188.50" departPos="29.11" arrival="245.20" arrivalPos="29.05" duration="56.70" routeLength="76.20" timeLoss="5.60" maxSpeed="1.49" waitingTime="0.00"/>
    </personinfo>
    <tripinfo id="D3_1.4" depart="106.35" departLane="140483224#1_1" departPos="12.10" departPosLat="0.00" departSpeed="26.28" departDelay="0.00" arrival="251.35" arrivalLane="-440471861#0_2" arrivalPos="31.52" arrivalPosLat="0.00" arrivalSpeed="21.34" duration="145.00" routeLength="1060.97" waitingTime="53.30" waitingCount="4" stopTime="0.00" timeLoss="105.29" rerouteNo="1" devices="tripinfo_D3_1.4 routing_D3_1.4" vType="bus" speedFactor="1.00" vaporized=""/>
    <personinfo id="pf_2.15" depart="225.00" type="ped" speedFactor="0.90" duration="27.35" waitingTime="0.00" timeLoss="2.79" traveltime="27.35">
        <walk depart="225.00" departPos="15.09" arrival="252.35" arrivalPos="3.44" duration="27.35" routeLength="30.72" timeLoss="2.79" maxSpeed="1.25" waitingTime="0.00"/>
    </personinfo>
    <tripinfo id="D3_1.5" depart="117.30" departLane="140483224#1_2" departPos="5.10" departPosLat="0.00" departSpeed="24.06" departDelay="1.65" arrival="252.85" arrivalLane="-440471861#0_2" arrivalPos="31.52" arrivalPosLat="0.00" arrivalSpeed="23.67" duration="135.55" routeLength="1067.97" waitingTime="51.80" waitingCount="4" stopTime="0.00" timeLoss="89.40" rerouteNo="1" devices="tripinfo_D3_1.5 routing_D3_1.5" vType="car" speedFactor="0.87" vaporized=""/>
    <tripinfo id="C3_1.6" depart="125.75" departLane="440471861#0_1" departPos="2.30" departPosLat="0.00" departSpeed="31.61" departDelay="0.00" arrival="257.20" arrivalLane="-140483224#1_1" arrivalPos="64.04" arrivalPosLat="0.00" arrivalSpeed="31.58" duration="131.45" routeLength="1055.58" waitingTime="60.55" waitingCount="2" stopTime="0.00" timeLoss="96.83" rerouteNo="1" devices="tripinfo_C3_1.6 routing_C3_1.6" vType="motorcycle" speedFactor="1.14" vaporized=""/>
    <tripinfo id="D3_1.6" depart="140.95" departLane="140483224#1_1" departPos="2.30" departPosLat="0.00" departSpeed="26.43" departDelay="0.00" arrival="257.50" arrivalLane="-440471861#0_2" arrivalPos="31.52" arrivalPosLat="0.00" arrivalSpeed="26.39" duration="116.55" routeLength="1070.77" waitingTime="40.25" waitingCount="4" stopTime="0.00" timeLoss="74.44" rerouteNo="1" devices="tripinfo_D3_1.6 routing_D3_1.6" vType="tricycle" speedFactor="0.95" vaporized=""/>
    <tripinfo id="A3_1.4" depart="103.80" departLane="-793339796#2_2" departPos="5.10" departPosLat="0.00" departSpeed="20.45" departDelay="0.00" arrival="259.80" arrivalLane="-140483224#1_2" arrivalPos="64.04" arrivalPosLat="0.00" arrivalSpeed="29.83" duration="156.00" routeLength="1080.94" waitingTime="69.60" waitingCount="2" stopTime="0.00" timeLoss="118.40" rerouteNo="1" devices="tripinfo_A3_1.4 routing_A3_1.4" vType="car" speedFactor="1.08" vaporized=""/>
    <personinfo id="pf_4.10" depart="150.00" type="ped" speedFactor="1.08" duration="110.25" waitingTime="0.35" timeLoss="11.28" traveltime="110.25">
        <walk depart="150.00" departPos="25.00" arrival="203.45" arrivalPos="29.11" duration="53.45" routeLength="72.15" timeLoss="5.32" maxSpeed="1.50" waitingTime="0.00"/>
        <walk depart="203.45" departPos="29.11" arrival="260.25" arrivalPos="29.05" duration="56.80" routeLength="76.20" timeLoss="5.96" maxSpeed="1.50" waitingTime="0.35"/>
    </personinfo>
    <tripinfo id="A1_1.2" depart="154.60" departLane="-793339796#2_1" departPos="8.10" departPosLat="0.00" departSpeed="24.29" departDelay="0.00" arrival="261.15" arrivalLane="-145894807#0_1" arrivalPos="260.95" arrivalPosLat="0.00" arrivalSpeed="8.31" duration="106.55" routeLength="1053.72" waitingTime="0.00" waitingCount="0" stopTime="0.00" timeLoss="17.18" rerouteNo="1" devices="tripinfo_A1_1.2 routing_A1_1.2" vType="jeep" speedFactor="1.00" vaporized=""/>
    <tripinfo id="A3_1.6" depart="111.05" departLane="-793339796#2_2" departPos="5.10" departPosLat="0.00" departSpeed="22.46" departDelay="0.00" arrival="262.05" arrivalLane="-140483224#1_2" arrivalPos="64.04" arrivalPosLat="0.00" arrivalSpeed="27.29" duration="151.00" routeLength="1080.94" waitingTime="68.65" waitingCount="3" stopTime="0.00" timeLoss="109.94" rerouteNo="1" devices="tripinfo_A3_1.6 routing_A3_1.6" vType="car" speedFactor="0.98" vaporized=""/>
    <personinfo id="pf_2.16" depart="240.00" type="ped" speedFactor="1.03" duration="23.75" waitingTime="0.00" timeLoss="2.28" traveltime="23.75">
        <walk depart="240.00" departPos="15.09" arrival="263.75" arrivalPos="3.44" duration="23.75" routeLength="30.72" timeLoss="2.28" maxSpeed="1.43" waitingTime="0.00"/>
    </personinfo>