<?xml version="1.0" encoding="UTF-8"?>

<!-- generated on 2025-11-08 15:32:17 by Eclipse SUMO sumo Version 1.24.0
<sumoConfiguration xmlns:xsi="http://www.w3.org/2001/XMLSchema-instance" xsi:noNamespaceSchemaLocation="http://sumo.dlr.de/xsd/sumoConfiguration.xsd">

    <input>
        <net-file value="Olivarez_traci\network/map.net.xml"/>
        <route-files value="Olivarez_traci\demand/demand.rou.xml"/>
        <additional-files value="Olivarez_traci\additionals/map.poly.xml,Olivarez_traci\ additionals/detectors.add.xml"/>
    </input>

    <output>
        <tripinfo-output value="Olivarez_traci\output_DQN\SD_DQN_trips.xml"/>
        <statistic-output value="Olivarez_traci\output_DQN\SD_DQN_stats.xml"/>
    </output>

    <time>
        <begin value="0"/>
        <end value="10000"/>
        <step-length value="0.05"/>
    </time>

    <processing>
        <lateral-resolution value="0.1"/>
        <collision.action value="none"/>
        <collision.check-junctions value="false"/>
        <collision.mingap-factor value="0"/>
    </processing>

    <report>
        <no-warnings value="true"/>
    </report>

    <traci_server>
        <remote-port value="50235"/>
    </traci_server>

    <gui_only>
        <delay value="0"/>
    </gui_only>

</sumoConfiguration>
-->

<tripinfos xmlns:xsi="http://www.w3.org/2001/XMLSchema-instance" xsi:noNamespaceSchemaLocation="http://sumo.dlr.de/xsd/tripinfo_file.xsd">
    <tripinfo id="D1_1.0" depart="0.60" departLane="140483224#12_1" departPos="2.30" departPosLat="0.00" departSpeed="31.79" departDelay="0.00" arrival="24.40" arrivalLane="-361256298#1_2" arrivalPos="36.33" arrivalPosLat="0.00" arrivalSpeed="11.34" duration="23.80" routeLength="372.24" waitingTime="0.00" waitingCount="0" stopTime="0.00" timeLoss="10.05" rerouteNo="1" devices="tripinfo_D1_1.0 routing_D1_1.0" vType="tricycle" speedFactor="1.14" vaporized=""/>
    <tripinfo id="D3_1.0" depart="7.65" departLane="140483224#12_2" departPos="2.30" departPosLat="0.00" departSpeed="26.74" departDelay="0.00" arrival="24.45" arrivalLane="-440471861#6_2" arrivalPos="125.31" arrivalPosLat="0.00" arrivalSpeed="26.69" duration="16.80" routeLength="356.27" waitingTime="0.00" waitingCount="0" stopTime="0.00" timeLoss="1.97" rerouteNo="1" devices="tripinfo_D3_1.0 routing_D3_1.0" vType="motorcycle" speedFactor="0.96" vaporized=""/>
    <tripinfo id="A2_1.0" depart="4.45" departLane="-361256298#1_1" departPos="8.10" departPosLat="0.00" departSpeed="29.07" departDelay="0.00" arrival="49.75" arrivalLane="-440471861#6_1" arrivalPos="125.31" arrivalPosLat="0.00" arrivalSpeed="29.01" duration="45.30" routeLength="387.11" waitingTime="21.55" waitingCount="1" stopTime="0.00" timeLoss="31.95" rerouteNo="1" devices="tripinfo_A2_1.0 routing_A2_1.0" vType="jeep" speedFactor="1.05" vaporized=""/>
    <tripinfo id="B1_1.0" depart="37.80" departLane="939610874_1" departPos="8.10" departPosLat="0.00" departSpeed="10.15" departDelay="0.00" arrival="65.85" arrivalLane="-361256298#1_1" arrivalPos="36.33" arrivalPosLat="0.00" arrivalSpeed="13.89" duration="28.05" routeLength="271.95" waitingTime="0.00" waitingCount="0" stopTime="0.00" timeLoss="3.06" rerouteNo="1" devices="tripinfo_B1_1.0 routing_B1_1.0" vType="jeep" speedFactor="1.22" vaporized=""/>
    <tripinfo id="B2_1.0" depart="31.00" departLane="939610874_1" departPos="5.10" departPosLat="0.00" departSpeed="8.11" departDelay="0.00" arrival="89.60" arrivalLane="-440471861#6_1" arrivalPos="125.31" arrivalPosLat="0.00" arrivalSpeed="26.98" duration="58.60" routeLength="390.17" waitingTime="19.60" waitingCount="1" stopTime="0.00" timeLoss="27.21" rerouteNo="1" devices="tripinfo_B2_1.0 routing_B2_1.0" vType="car" speedFactor="0.97" vaporized=""/>
    <tripinfo id="C3_1.0" depart="43.55" departLane="440471861#6_1" departPos="8.10" departPosLat="0.00" departSpeed="23.80" departDelay="0.00" arrival="97.85" arrivalLane="-140483224#12_1" arrivalPos="63.66" arrivalPosLat="0.00" arrivalSpeed="23.78" duration="54.30" routeLength="338.32" waitingTime="30.45" waitingCount="1" stopTime="0.00" timeLoss="38.75" rerouteNo="1" devices="tripinfo_C3_1.0 routing_C3_1.0" vType="jeep" speedFactor="0.86" vaporized=""/>
    <tripinfo id="C3_1.1" depart="78.25" departLane="440471861#6_1" departPos="12.10" departPosLat="0.00" departSpeed="27.78" departDelay="0.00" arrival="103.20" arrivalLane="-140483224#12_1" arrivalPos="63.66" arrivalPosLat="0.00" arrivalSpeed="17.33" duration="24.95" routeLength="334.32" waitingTime="0.00" waitingCount="0" stopTime="0.00" timeLoss="11.80" rerouteNo="1" devices="tripinfo_C3_1.1 routing_C3_1.1" vType="bus" speedFactor="1.00" vaporized=""/>
    <tripinfo id="C2_1.0" depart="20.15" departLane="440471861#6_2" departPos="5.10" departPosLat="0.00" departSpeed="27.94" departDelay="0.00" arrival="105.45" arrivalLane="939610874_1" arrivalPos="50.72" arrivalPosLat="0.00" arrivalSpeed="8.31" duration="85.30" routeLength="339.74" waitingTime="55.15" waitingCount="1" stopTime="0.00" timeLoss="61.66" rerouteNo="1" devices="tripinfo_C2_1.0 routing_C2_1.0" vType="car" speedFactor="1.01" vaporized=""/>
    <personinfo id="pf_1.0" depart="0.00" type="ped" speedFactor="1.06" duration="114.30" waitingTime="0.00" timeLoss="11.44" traveltime="114.30">
        <walk depart="0.00" departPos="25.00" arrival="114.30" arrivalPos="7.46" duration="114.30" routeLength="151.44" timeLoss="11.44" maxSpeed="1.47" waitingTime="0.00"/>
    </personinfo>
    <tripinfo id="D3_1.1" depart="100.85" departLane="140483224#12_2" departPos="5.10" departPosLat="0.00" departSpeed="24.02" departDelay="0.00" arrival="130.35" arrivalLane="-440471861#6_2" arrivalPos="125.31" arrivalPosLat="0.00" arrivalSpeed="24.02" duration="29.50" routeLength="353.47" waitingTime="5.90" waitingCount="1" stopTime="0.00" timeLoss="13.12" rerouteNo="1" devices="tripinfo_D3_1.1 routing_D3_1.1" vType="car" speedFactor="0.86" vaporized=""/>
    <tripinfo id="D1_1.1" depart="46.15" departLane="140483224#12_1" departPos="7.20" departPosLat="0.00" departSpeed="26.63" departDelay="0.00" arrival="148.75" arrivalLane="-361256298#1_2" arrivalPos="36.33" arrivalPosLat="0.00" arrivalSpeed="9.08" duration="102.60" routeLength="367.34" waitingTime="52.90" waitingCount="2" stopTime="0.00" timeLoss="86.38" rerouteNo="1" devices="tripinfo_D1_1.1 routing_D1_1.1" vType="truck" speedFactor="0.96" vaporized=""/>
    <tripinfo id="D1_1.3" depart="118.00" departLane="140483224#12_1" departPos="2.30" departPosLat="0.00" departSpeed="28.35" departDelay="0.00" arrival="150.15" arrivalLane="-361256298#1_2" arrivalPos="36.33" arrivalPosLat="-0.80" arrivalSpeed="16.09" duration="32.15" routeLength="372.24" waitingTime="0.00" waitingCount="0" stopTime="0.00" timeLoss="16.73" rerouteNo="1" devices="tripinfo_D1_1.3 routing_D1_1.3" vType="motorcycle" speedFactor="1.02" vaporized=""/>
    <tripinfo id="D1_1.2" depart="58.55" departLane="140483224#12_1" departPos="5.10" departPosLat="0.00" departSpeed="25.31" departDelay="0.00" arrival="151.30" arrivalLane="-361256298#1_2" arrivalPos="36.33" arrivalPosLat="0.13" arrivalSpeed="12.33" duration="92.75" routeLength="369.44" waitingTime="37.50" waitingCount="2" stopTime="0.00" timeLoss="76.04" rerouteNo="1" devices="tripinfo_D1_1.2 routing_D1_1.2" vType="car" speedFactor="0.94" vaporized=""/>
    <tripinfo id="C1_1.0" depart="31.85" departLane="440471861#6_2" departPos="5.10" departPosLat="0.00" departSpeed="27.99" departDelay="0.00" arrival="154.20" arrivalLane="-361256298#1_2" arrivalPos="36.33" arrivalPosLat="0.03" arrivalSpeed="12.49" duration="122.35" routeLength="431.28" waitingTime="69.30" waitingCount="2" stopTime="0.00" timeLoss="105.81" rerouteNo="1" devices="tripinfo_C1_1.0 routing_C1_1.0" vType="car" speedFactor="1.01" vaporized=""/>
    <tripinfo id="C1_1.1" depart="41.05" departLane="440471861#6_2" departPos="5.10" departPosLat="0.00" departSpeed="29.98" departDelay="0.00" arrival="156.80" arrivalLane="-361256298#1_2" arrivalPos="36.33" arrivalPosLat="-0.00" arrivalSpeed="12.56" duration="115.75" routeLength="431.28" waitingTime="56.75" waitingCount="2" stopTime="0.00" timeLoss="100.33" rerouteNo="1" devices="tripinfo_C1_1.1 routing_C1_1.1" vType="car" speedFactor="1.08" vaporized=""/>
    <tripinfo id="A3_1.0" depart="107.30" departLane="-361256298#1_2" departPos="5.10" departPosLat="0.00" departSpeed="26.90" departDelay="0.00" arrival="173.25" arrivalLane="-140483224#12_2" arrivalPos="63.66" arrivalPosLat="0.00" arrivalSpeed="25.81" duration="65.95" routeLength="336.68" waitingTime="37.70" waitingCount="2" stopTime="0.00" timeLoss="51.87" rerouteNo="1" devices="tripinfo_A3_1.0 routing_A3_1.0" vType="car" speedFactor="0.97" vaporized=""/>
    <personinfo id="pf_1.1" depart="36.00" type="ped" speedFactor="0.94" duration="147.15" waitingTime="18.15" timeLoss="30.94" traveltime="147.15">
        <walk depart="36.00" departPos="25.00" arrival="183.15" arrivalPos="7.46" duration="147.15" routeLength="151.44" timeLoss="30.94" maxSpeed="1.30" waitingTime="18.15"/>
    </personinfo>
    <tripinfo id="A1_1.0" depart="78.95" departLane="-361256298#1_1" departPos="7.20" departPosLat="0.00" departSpeed="26.95" departDelay="0.00" arrival="202.55" arrivalLane="939610874_1" arrivalPos="50.72" arrivalPosLat="0.00" arrivalSpeed="8.06" duration="123.60" routeLength="315.14" waitingTime="83.40" waitingCount="2" stopTime="0.00" timeLoss="99.08" rerouteNo="1" devices="tripinfo_A1_1.0 routing_A1_1.0" vType="truck" speedFactor="0.97" vaporized=""/>
    <tripinfo id="B1_1.1" depart="171.30" departLane="939610874_1" departPos="5.10" departPosLat="0.00" departSpeed="8.25" departDelay="0.00" arrival="205.40" arrivalLane="-361256298#1_1" arrivalPos="36.33" arrivalPosLat="0.00" arrivalSpeed="13.31" duration="34.10" routeLength="274.95" waitingTime="0.00" waitingCount="0" stopTime="0.00" timeLoss="3.00" rerouteNo="1" devices="tripinfo_B1_1.1 routing_B1_1.1" vType="car" speedFactor="0.99" vaporized=""/>
    <tripinfo id="A1_1.1" depart="125.65" departLane="-361256298#1_1" departPos="8.10" departPosLat="0.00" departSpeed="24.10" departDelay="0.00" arrival="206.55" arrivalLane="939610874_1" arrivalPos="50.72" arrivalPosLat="0.00" arrivalSpeed="7.22" duration="80.90" routeLength="314.24" waitingTime="40.40" waitingCount="1" stopTime="0.00" timeLoss="53.46" rerouteNo="1" devices="tripinfo_A1_1.1 routing_A1_1.1" vType="jeep" speedFactor="0.87" vaporized=""/>
    <tripinfo id="B2_1.1" depart="64.60" departLane="939610874_1" departPos="5.10" departPosLat="0.00" departSpeed="8.77" departDelay="0.00" arrival="209.90" arrivalLane="-440471861#6_1" arrivalPos="125.31" arrivalPosLat="0.00" arrivalSpeed="29.10" duration="145.30" routeLength="390.17" waitingTime="107.85" waitingCount="1" stopTime="0.00" timeLoss="116.24" rerouteNo="1" devices="tripinfo_B2_1.1 routing_B2_1.1" vType="car" speedFactor="1.05" vaporized=""/>
    <tripinfo id="B2_1.2" depart="75.15" departLane="939610874_1" departPos="5.10" departPosLat="0.00" departSpeed="7.77" departDelay="0.00" arrival="211.00" arrivalLane="-440471861#6_1" arrivalPos="125.31" arrivalPosLat="0.00" arrivalSpeed="25.86" duration="135.85" routeLength="390.17" waitingTime="92.85" waitingCount="1" stopTime="0.00" timeLoss="103.13" rerouteNo="1" devices="tripinfo_B2_1.2 routing_B2_1.2" vType="car" speedFactor="0.93" vaporized=""/>
    <personinfo id="pf_1.3" depart="108.00" type="ped" speedFactor="1.08" duration="114.35" waitingTime="2.50" timeLoss="13.64" traveltime="114.35">
        <walk depart="108.00" departPos="25.00" arrival="222.35" arrivalPos="7.46" duration="114.35" routeLength="151.44" timeLoss="13.64" maxSpeed="1.50" waitingTime="2.50"/>
    </personinfo>
    <personinfo id="pf_1.2" depart="72.00" type="ped" speedFactor="1.01" duration="153.10" waitingTime="33.15" timeLoss="45.19" traveltime="153.10">
        <walk depart="72.00" departPos="25.00" arrival="225.10" arrivalPos="7.46" duration="153.10" routeLength="151.44" timeLoss="45.19" maxSpeed="1.40" waitingTime="33.15"/>
    </personinfo>
    <tripinfo id="C2_1.1" depart="161.10" departLane="440471861#6_2" departPos="8.10" departPosLat="0.00" departSpeed="28.24" departDelay="0.00" arrival="250.80" arrivalLane="939610874_1" arrivalPos="50.72" arrivalPosLat="0.00" arrivalSpeed="8.45" duration="89.70" routeLength="336.74" waitingTime="59.65" waitingCount="1" stopTime="0.00" timeLoss="66.43" rerouteNo="1" devices="tripinfo_C2_1.1 routing_C2_1.1" vType="jeep" speedFactor="1.02" vaporized=""/>
    <tripinfo id="C3_1.2" depart="161.95" departLane="440471861#6_1" departPos="5.10" departPosLat="0.00" departSpeed="26.23" departDelay="0.00" arrival="256.00" arrivalLane="-140483224#12_1" arrivalPos="63.66" arrivalPosLat="0.00" arrivalSpeed="21.57" duration="94.05" routeLength="341.32" waitingTime="66.05" waitingCount="2" stopTime="0.00" timeLoss="79.84" rerouteNo="1" devices="tripinfo_C3_1.2 routing_C3_1.2" vType="car" speedFactor="0.94" vaporized=""/>
    <tripinfo id="C3_1.3" depart="180.75" departLane="440471861#6_1" departPos="5.10" departPosLat="0.00" departSpeed="23.87" departDelay="0.00" arrival="256.10" arrivalLane="-140483224#12_2" arrivalPos="63.66" arrivalPosLat="0.00" arrivalSpeed="21.42" duration="75.35" routeLength="341.32" waitingTime="38.20" waitingCount="3" stopTime="0.00" timeLoss="59.70" rerouteNo="1" devices="tripinfo_C3_1.3 routing_C3_1.3" vType="car" speedFactor="0.86" vaporized=""/>
    <personinfo id="pf_1.4" depart="144.00" type="ped" speedFactor="1.03" duration="117.90" waitingTime="0.00" timeLoss="12.07" traveltime="117.90">
        <walk depart="144.00" departPos="25.00" arrival="261.90" arrivalPos="7.46" duration="117.90" routeLength="151.44" timeLoss="12.07" maxSpeed="1.43" waitingTime="0.00"/>
    </personinfo>
    <tripinfo id="D3_1.2" depart="208.30" departLane="140483224#12_2" departPos="12.10" departPosLat="0.00" departSpeed="27.78" departDelay="0.00" arrival="286.95" arrivalLane="-440471861#6_2" arrivalPos="125.31" arrivalPosLat="0.00" arrivalSpeed="19.76" duration="78.65" routeLength="346.47" waitingTime="40.90" waitingCount="2" stopTime="0.00" timeLoss="64.73" rerouteNo="1" devices="tripinfo_D3_1.2 routing_D3_1.2" vType="bus" speedFactor="1.00" vaporized=""/>
    <tripinfo id="A3_1.1" depart="154.50" departLane="-361256298#1_2" departPos="5.10" departPosLat="0.00" departSpeed="4.70" departDelay="6.00" arrival="293.35" arrivalLane="-140483224#12_2" arrivalPos="63.66" arrivalPosLat="-0.00" arrivalSpeed="25.48" duration="138.85" routeLength="336.68" waitingTime="106.95" waitingCount="2" stopTime="0.00" timeLoss="125.12" rerouteNo="1" devices="tripinfo_A3_1.1 routing_A3_1.1" vType="car" speedFactor="0.99" vaporized=""/>
    <tripinfo id="D1_1.4" depart="180.25" departLane="140483224#12_1" departPos="7.20" departPosLat="0.00" departSpeed="27.18" departDelay="1.35" arrival="293.55" arrivalLane="-361256298#1_2" arrivalPos="36.33" arrivalPosLat="0.00" arrivalSpeed="9.12" duration="113.30" routeLength="367.34" waitingTime="69.05" waitingCount="2" stopTime="0.00" timeLoss="97.35" rerouteNo="1" devices="tripinfo_D1_1.4 routing_D1_1.4" vType="truck" speedFactor="0.98" vaporized=""/>
    <tripinfo id="D1_1.5" depart="226.35" departLane="140483224#12_1" departPos="2.30" departPosLat="0.00" departSpeed="30.56" departDelay="0.00" arrival="295.95" arrivalLane="-361256298#1_2" arrivalPos="36.33" arrivalPosLat="-0.00" arrivalSpeed="11.29" duration="69.60" routeLength="372.24" waitingTime="21.85" waitingCount="2" stopTime="0.00" timeLoss="55.23" rerouteNo="1" devices="tripinfo_D1_1.5 routing_D1_1.5" vType="tricycle" speedFactor="1.10" vaporized=""/>
    <tripinfo id="A3_1.2" depart="227.15" departLane="-361256298#1_2" departPos="7.20" departPosLat="0.00" departSpeed="29.31" departDelay="0.00" arrival="299.75" arrivalLane="-140483224#12_2" arrivalPos="63.66" arrivalPosLat="0.00" arrivalSpeed="18.35" duration="72.60" routeLength="334.58" waitingTime="40.05" waitingCount="1" stopTime="0.00" timeLoss="59.77" rerouteNo="1" devices="tripinfo_A3_1.2 routing_A3_1.2" vType="truck" speedFactor="1.05" vaporized=""/>
    <tripinfo id="B2_1.3" depart="201.70" departLane="939610874_1" departPos="5.10" departPosLat="0.00" departSpeed="4.13" departDelay="3.15" arrival="300.55" arrivalLane="-440471861#6_2" arrivalPos="125.31" arrivalPosLat="0.00" arrivalSpeed="23.49" duration="98.85" routeLength="454.99" waitingTime="41.10" waitingCount="2" stopTime="0.00" timeLoss="63.24" rerouteNo="1" devices="tripinfo_B2_1.3 routing_B2_1.3" vType="car" speedFactor="0.85" vaporized=""/>
    <tripinfo id="A2_1.1" depart="261.45" departLane="-361256298#1_1" departPos="5.10" departPosLat="0.00" departSpeed="23.54" departDelay="0.00" arrival="302.00" arrivalLane="-440471861#6_2" arrivalPos="125.31" arrivalPosLat="0.00" arrivalSpeed="23.52" duration="40.55" routeLength="390.11" waitingTime="11.30" waitingCount="1" stopTime="0.00" timeLoss="23.95" rerouteNo="1" devices="tripinfo_A2_1.1 routing_A2_1.1" vType="car" speedFactor="0.85" vaporized=""/>
    <personinfo id="pf_1.6" depart="216.00" type="ped" speedFactor="1.05" duration="128.00" waitingTime="12.15" timeLoss="23.74" traveltime="128.00">
        <walk depart="216.00" departPos="25.00" arrival="344.00" arrivalPos="7.46" duration="128.00" routeLength="151.44" timeLoss="23.74" maxSpeed="1.45" waitingTime="12.15"/>
    </personinfo>
    <tripinfo id="A1_1.2" depart="154.60" departLane="-361256298#1_1" departPos="12.10" departPosLat="0.00" departSpeed="27.78" departDelay="0.00" arrival="347.90" arrivalLane="939610874_1" arrivalPos="50.72" arrivalPosLat="0.00" arrivalSpeed="8.32" duration="193.30" routeLength="310.24" waitingTime="152.80" waitingCount="2" stopTime="0.00" timeLoss="169.66" rerouteNo="1" devices="tripinfo_A1_1.2 routing_A1_1.2" vType="bus" speedFactor="1.00" vaporized=""/>
    <tripinfo id="A1_1.3" depart="222.65" departLane="-361256298#1_1" departPos="5.10" departPosLat="0.00" departSpeed="25.51" departDelay="0.00" arrival="351.90" arrivalLane="939610874_1" arrivalPos="50.72" arrivalPosLat="0.00" arrivalSpeed="7.62" duration="129.25" routeLength="317.24" waitingTime="90.10" waitingCount="1" stopTime="0.00" timeLoss="103.25" rerouteNo="1" devices="tripinfo_A1_1.3 routing_A1_1.3" vType="car" speedFactor="0.92" vaporized=""/>
    <personinfo id="pf_1.5" depart="180.00" type="ped" speedFactor="0.83" duration="173.90" waitingTime="28.20" timeLoss="42.69" traveltime="173.90">
        <walk depart="180.00" departPos="25.00" arrival="353.90" arrivalPos="7.46" duration="173.90" routeLength="151.44" timeLoss="42.69" maxSpeed="1.15" waitingTime="28.20"/>
    </personinfo>
    <tripinfo id="A1_1.4" depart="277.50" departLane="-361256298#1_1" departPos="2.30" departPosLat="0.00" departSpeed="25.07" departDelay="0.00" arrival="354.15" arrivalLane="939610874_1" arrivalPos="50.72" arrivalPosLat="0.00" arrivalSpeed="7.50" duration="76.65" routeLength="320.04" waitingTime="34.10" waitingCount="2" stopTime="0.00" timeLoss="50.06" rerouteNo="1" devices="tripinfo_A1_1.4 routing_A1_1.4" vType="tricycle" speedFactor="0.90" vaporized=""/>
    <tripinfo id="A1_1.5" depart="322.60" departLane="-361256298#1_1" departPos="5.10" departPosLat="0.00" departSpeed="27.98" departDelay="0.00" arrival="356.05" arrivalLane="939610874_1" arrivalPos="50.72" arrivalPosLat="0.00" arrivalSpeed="8.36" duration="33.45" routeLength="317.24" waitingTime="0.00" waitingCount="0" stopTime="0.00" timeLoss="9.74" rerouteNo="1" devices="tripinfo_A1_1.5 routing_A1_1.5" vType="car" speedFactor="1.01" vaporized=""/>
    <tripinfo id="A1_1.6" depart="329.65" departLane="-361256298#1_1" departPos="7.20" departPosLat="0.00" departSpeed="28.40" departDelay="0.00" arrival="357.90" arrivalLane="939610874_1" arrivalPos="50.72" arrivalPosLat="0.00" arrivalSpeed="9.17" duration="28.25" routeLength="315.14" waitingTime="0.00" waitingCount="0" stopTime="0.00" timeLoss="6.61" rerouteNo="1" devices="tripinfo_A1_1.6 routing_A1_1.6" vType="truck" speedFactor="1.10" vaporized=""/>
    <tripinfo id="B2_1.4" depart="306.80" departLane="939610874_1" departPos="5.10" departPosLat="0.00" departSpeed="8.81" departDelay="0.00" arrival="364.65" arrivalLane="-440471861#6_1" arrivalPos="125.31" arrivalPosLat="0.00" arrivalSpeed="29.14" duration="57.85" routeLength="390.17" waitingTime="14.85" waitingCount="1" stopTime="0.00" timeLoss="28.98" rerouteNo="1" devices="tripinfo_B2_1.4 routing_B2_1.4" vType="car" speedFactor="1.06" vaporized=""/>
    <tripinfo id="B3_1.0" depart="241.30" departLane="939610874_1" departPos="12.10" departPosLat="0.00" departSpeed="8.33" departDelay="0.00" arrival="386.60" arrivalLane="-140483224#12_1" arrivalPos="63.66" arrivalPosLat="0.00" arrivalSpeed="14.38" duration="145.30" routeLength="342.72" waitingTime="93.25" waitingCount="2" stopTime="0.00" timeLoss="117.33" rerouteNo="1" devices="tripinfo_B3_1.0 routing_B3_1.0" vType="bus" speedFactor="1.00" vaporized=""/>
    <personinfo id="pf_1.7" depart="252.00" type="ped" speedFactor="0.89" duration="136.40" waitingTime="0.00" timeLoss="13.33" traveltime="136.40">
        <walk depart="252.00" departPos="25.00" arrival="388.40" arrivalPos="7.46" duration="136.40" routeLength="151.44" timeLoss="13.33" maxSpeed="1.23" waitingTime="0.00"/>
    </personinfo>
    <tripinfo id="B1_1.2" depart="381.65" departLane="939610874_1" departPos="8.10" departPosLat="0.00" departSpeed="8.18" departDelay="0.00" arrival="415.70" arrivalLane="-361256298#1_1" arrivalPos="36.33" arrivalPosLat="0.00" arrivalSpeed="12.97" duration="34.05" routeLength="271.95" waitingTime="0.00" waitingCount="0" stopTime="0.00" timeLoss="3.02" rerouteNo="1" devices="tripinfo_B1_1.2 routing_B1_1.2" vType="jeep" speedFactor="0.98" vaporized=""/>
    <tripinfo id="C2_1.2" depart="289.65" departLane="440471861#6_2" departPos="8.10" departPosLat="0.00" departSpeed="26.06" departDelay="0.00" arrival="416.55" arrivalLane="939610874_1" arrivalPos="50.72" arrivalPosLat="0.00" arrivalSpeed="9.05" duration="126.90" routeLength="336.74" waitingTime="92.30" waitingCount="1" stopTime="0.00" timeLoss="105.18" rerouteNo="1" devices="tripinfo_C2_1.2 routing_C2_1.2" vType="jeep" speedFactor="1.09" vaporized=""/>
    <tripinfo id="C1_1.2" depart="288.55" departLane="440471861#6_2" departPos="5.10" departPosLat="0.00" departSpeed="27.22" departDelay="0.00" arrival="418.05" arrivalLane="-361256298#1_2" arrivalPos="36.33" arrivalPosLat="0.00" arrivalSpeed="12.40" duration="129.50" routeLength="431.28" waitingTime="97.30" waitingCount="1" stopTime="0.00" timeLoss="112.54" rerouteNo="1" devices="tripinfo_C1_1.2 routing_C1_1.2" vType="car" speedFactor="0.98" vaporized=""/>
    <tripinfo id="C1_1.3" depart="324.05" departLane="440471861#6_2" departPos="8.10" departPosLat="0.00" departSpeed="25.00" departDelay="0.00" arrival="422.00" arrivalLane="-361256298#1_2" arrivalPos="36.33" arrivalPosLat="0.00" arrivalSpeed="12.29" duration="97.95" routeLength="428.28" waitingTime="58.55" waitingCount="1" stopTime="0.00" timeLoss="79.57" rerouteNo="1" devices="tripinfo_C1_1.3 routing_C1_1.3" vType="jeep" speedFactor="0.90" vaporized=""/>
    <tripinfo id="C2_1.3" depart="379.20" departLane="440471861#6_2" departPos="5.10" departPosLat="0.00" departSpeed="27.69" departDelay="0.00" arrival="422.90" arrivalLane="939610874_1" arrivalPos="50.72" arrivalPosLat="0.00" arrivalSpeed="6.95" duration="43.70" routeLength="339.74" waitingTime="4.35" waitingCount="1" stopTime="0.00" timeLoss="19.85" rerouteNo="1" devices="tripinfo_C2_1.3 routing_C2_1.3" vType="car" speedFactor="1.00" vaporized=""/>
    <tripinfo id="C2_1.4" depart="400.55" departLane="440471861#6_2" departPos="5.10" departPosLat="0.00" departSpeed="29.60" departDelay="0.00" arrival="425.20" arrivalLane="939610874_1" arrivalPos="50.72" arrivalPosLat="0.00" arrivalSpeed="8.83" duration="24.65" routeLength="339.74" waitingTime="0.00" waitingCount="0" stopTime="0.00" timeLoss="2.35" rerouteNo="1" devices="tripinfo_C2_1.4 routing_C2_1.4" vType="car" speedFactor="1.07" vaporized=""/>
    <tripinfo id="C2_1.5" depart="401.10" departLane="440471861#6_2" departPos="5.10" departPosLat="0.00" departSpeed="26.70" departDelay="0.00" arrival="427.35" arrivalLane="939610874_1" arrivalPos="50.72" arrivalPosLat="0.00" arrivalSpeed="8.99" duration="26.25" routeLength="339.74" waitingTime="0.00" waitingCount="0" stopTime="0.00" timeLoss="4.34" rerouteNo="1" devices="tripinfo_C2_1.5 routing_C2_1.5" vType="car" speedFactor="1.09" vaporized=""/>
    <personinfo id="pf_1.8" depart="288.00" type="ped" speedFactor="0.94" duration="155.45" waitingTime="26.30" timeLoss="39.19" traveltime="155.45">
        <walk depart="288.00" departPos="25.00" arrival="443.45" arrivalPos="7.46" duration="155.45" routeLength="151.44" timeLoss="39.19" maxSpeed="1.30" waitingTime="26.30"/>
    </personinfo>
    <tripinfo id="C2_1.6" depart="426.35" departLane="440471861#6_2" departPos="2.30" departPosLat="0.00" departSpeed="28.58" departDelay="0.00" arrival="450.20" arrivalLane="939610874_1" arrivalPos="50.72" arrivalPosLat="0.00" arrivalSpeed="8.56" duration="23.85" routeLength="342.54" waitingTime="0.00" waitingCount="0" stopTime="0.00" timeLoss="0.63" rerouteNo="1" devices="tripinfo_C2_1.6 routing_C2_1.6" vType="tricycle" speedFactor="1.03" vaporized=""/>
    <tripinfo id="C3_1.4" depart="308.85" departLane="440471861#6_1" departPos="5.10" departPosLat="0.00" departSpeed="28.41" departDelay="0.00" arrival="461.60" arrivalLane="-140483224#12_1" arrivalPos="63.66" arrivalPosLat="0.00" arrivalSpeed="21.24" duration="152.75" routeLength="341.32" waitingTime="124.20" waitingCount="2" stopTime="0.00" timeLoss="139.62" rerouteNo="1" devices="tripinfo_C3_1.4 routing_C3_1.4" vType="car" speedFactor="1.02" vaporized=""/>
    <personinfo id="pf_1.9" depart="324.00" type="ped" speedFactor="0.86" duration="141.60" waitingTime="0.00" timeLoss="14.36" traveltime="141.60">
        <walk depart="324.00" departPos="25.00" arrival="465.60" arrivalPos="7.46" duration="141.60" routeLength="151.44" timeLoss="14.36" maxSpeed="1.19" waitingTime="0.00"/>
    </personinfo>
    <tripinfo id="D3_1.3" depart="358.75" departLane="140483224#12_2" departPos="5.10" departPosLat="0.00" departSpeed="30.69" departDelay="0.00" arrival="470.60" arrivalLane="-440471861#6_2" arrivalPos="125.31" arrivalPosLat="0.00" arrivalSpeed="28.78" duration="111.85" routeLength="353.47" waitingTime="83.45" waitingCount="2" stopTime="0.00" timeLoss="99.32" rerouteNo="1" devices="tripinfo_D3_1.3 routing_D3_1.3" vType="car" speedFactor="1.13" vaporized=""/>
    <personinfo id="pf_1.10" depart="360.00" type="ped" speedFactor="1.09" duration="110.95" waitingTime="0.00" timeLoss="10.98" traveltime="110.95">
        <walk depart="360.00" departPos="25.00" arrival="470.95" arrivalPos="7.46" duration="110.95" routeLength="151.44" timeLoss="10.98" maxSpeed="1.51" waitingTime="0.00"/>
    </personinfo>
    <tripinfo id="D3_1.4" depart="411.55" departLane="140483224#12_2" departPos="5.10" departPosLat="0.00" departSpeed="29.28" departDelay="31.20" arrival="472.00" arrivalLane="-440471861#6_2" arrivalPos="125.31" arrivalPosLat="0.00" arrivalSpeed="29.10" duration="60.45" routeLength="353.47" waitingTime="32.75" waitingCount="2" stopTime="0.00" timeLoss="47.00" rerouteNo="1" devices="tripinfo_D3_1.4 routing_D3_1.4" vType="car" speedFactor="1.05" vaporized=""/>
    <tripinfo id="D2_1.0" depart="290.30" departLane="140483224#12_1" departPos="5.10" departPosLat="0.00" departSpeed="26.57" departDelay="0.00" arrival="478.90" arrivalLane="939610874_1" arrivalPos="50.72" arrivalPosLat="0.00" arrivalSpeed="7.96" duration="188.60" routeLength="293.42" waitingTime="153.55" waitingCount="1" stopTime="0.00" timeLoss="165.84" rerouteNo="1" devices="tripinfo_D2_1.0 routing_D2_1.0" vType="car" speedFactor="0.96" vaporized=""/>
    <tripinfo id="D1_1.6" depart="284.85" departLane="140483224#12_1" departPos="2.30" departPosLat="0.00" departSpeed="30.37" departDelay="0.00" arrival="496.00" arrivalLane="-361256298#1_2" arrivalPos="36.33" arrivalPosLat="0.00" arrivalSpeed="11.06" duration="211.15" routeLength="372.24" waitingTime="176.85" waitingCount="2" stopTime="0.00" timeLoss="196.78" rerouteNo="1" devices="tripinfo_D1_1.6 routing_D1_1.6" vType="tricycle" speedFactor="1.09" vaporized=""/>
    <tripinfo id="D1_1.7" depart="370.50" departLane="140483224#12_1" departPos="2.30" departPosLat="0.00" departSpeed="21.34" departDelay="0.00" arrival="499.60" arrivalLane="-361256298#1_2" arrivalPos="36.33" arrivalPosLat="0.00" arrivalSpeed="10.73" duration="129.10" routeLength="372.24" waitingTime="83.20" waitingCount="3" stopTime="0.00" timeLoss="108.59" rerouteNo="1" devices="tripinfo_D1_1.7 routing_D1_1.7" vType="tricycle" speedFactor="0.77" vaporized=""/>
    <tripinfo id="D1_1.8" depart="423.85" departLane="140483224#12_1" departPos="5.10" departPosLat="0.00" departSpeed="25.94" departDelay="0.00" arrival="501.95" arrivalLane="-361256298#1_2" arrivalPos="36.33" arrivalPosLat="0.00" arrivalSpeed="12.21" duration="78.10" routeLength="369.44" waitingTime="21.70" waitingCount="3" stopTime="0.00" timeLoss="61.30" rerouteNo="1" devices="tripinfo_D1_1.8 routing_D1_1.8" vType="car" speedFactor="0.93" vaporized=""/>
    <tripinfo id="C1_1.4" depart="435.90" departLane="440471861#6_2" departPos="12.10" departPosLat="0.00" departSpeed="27.78" departDelay="0.00" arrival="507.00" arrivalLane="-361256298#1_2" arrivalPos="36.33" arrivalPosLat="0.00" arrivalSpeed="8.70" duration="71.10" routeLength="424.28" waitingTime="27.90" waitingCount="1" stopTime="0.00" timeLoss="54.74" rerouteNo="1" devices="tripinfo_C1_1.4 routing_C1_1.4" vType="bus" speedFactor="1.00" vaporized=""/>