<?xml version="1.0" encoding="UTF-8"?>

<!-- generated on 2025-11-26 18:24:50 by Eclipse SUMO GUI Version 1.24.0
<sumoConfiguration xmlns:xsi="http://www.w3.org/2001/XMLSchema-instance" xsi:noNamespaceSchemaLocation="http://sumo.dlr.de/xsd/sumoConfiguration.xsd">

    <input>
        <net-file value="Olivarez_traci\network/map1.net.xml"/>
        <route-files value="Olivarez_traci\demand/flows_normal_traffic.rou.xml"/>
        <additional-files value="Olivarez_traci\additionals/map.poly.xml,Olivarez_traci\ additionals/detectors.add.xml"/>
    </input>

    <output>
        <tripinfo-output value="Olivarez_traci\output_DQN\SD_DQN_trips.xml"/>
        <statistic-output value="Olivarez_traci\output_DQN\SD_DQN_stats.xml"/>
    </output>

    <time>
        <begin value="0"/>
        <end value="10800"/>
        <step-length value="0.05"/>
    </time>

    <processing>
        <lateral-resolution value="0.1"/>
        <collision.action value="none"/>
        <collision.check-junctions value="false"/>
        <collision.mingap-factor value="0"/>
    </processing>

    <report>
        <no-warnings value="true"/>
    </report>

    <traci_server>
        <remote-port value="51674"/>
    </traci_server>

    <gui_only>
        <delay value="100"/>
    </gui_only>

</sumoConfiguration>
-->

<tripinfos xmlns:xsi="http://www.w3.org/2001/XMLSchema-instance" xsi:noNamespaceSchemaLocation="http://sumo.dlr.de/xsd/tripinfo_file.xsd">
    <personinfo id="pf_2.0" depart="0.00" type="ped" speedFactor="1.06" duration="23.15" waitingTime="0.00" timeLoss="2.38" traveltime="23.15">
        <walk depart="0.00" departPos="15.09" arrival="23.15" arrivalPos="3.44" duration="23.15" routeLength="30.72" timeLoss="2.38" maxSpeed="1.48" waitingTime="0.00"/>
    </personinfo>
    <tripinfo id="D3_1.0" depart="7.65" departLane="140483224#1_1" departPos="12.10" departPosLat="0.00" departSpeed="27.78" departDelay="0.00" arrival="70.55" arrivalLane="-440471861#0_2" arrivalPos="31.52" arrivalPosLat="0.00" arrivalSpeed="21.40" duration="62.90" routeLength="1060.97" waitingTime="0.00" waitingCount="0" stopTime="0.00" timeLoss="23.17" rerouteNo="1" devices="tripinfo_D3_1.0 routing_D3_1.0" vType="bus" speedFactor="1.00" vaporized=""/>
    <tripinfo id="A2_1.0" depart="4.45" departLane="-793339796#2_1" departPos="5.10" departPosLat="0.00" departSpeed="23.90" departDelay="0.00" arrival="72.30" arrivalLane="-440471861#0_1" arrivalPos="31.52" arrivalPosLat="0.00" arrivalSpeed="23.85" duration="67.85" routeLength="1081.27" waitingTime="0.00" waitingCount="0" stopTime="0.00" timeLoss="22.61" rerouteNo="1" devices="tripinfo_A2_1.0 routing_A2_1.0" vType="car" speedFactor="0.86" vaporized=""/>
</tripinfos>
