<?xml version="1.0" encoding="UTF-8"?>

<!-- generated on 2025-12-01 19:31:06 by Eclipse SUMO sumo Version 1.24.0
<sumoConfiguration xmlns:xsi="http://www.w3.org/2001/XMLSchema-instance" xsi:noNamespaceSchemaLocation="http://sumo.dlr.de/xsd/sumoConfiguration.xsd">

    <input>
        <net-file value="Olivarez_traci\network/map1.net.xml"/>
        <route-files value="Olivarez_traci\demand/flows_slow_traffic.rou.xml"/>
        <additional-files value="Olivarez_traci\additionals/map.poly.xml,Olivarez_traci\ additionals/detectors.add.xml"/>
    </input>

    <output>
        <tripinfo-output value="Olivarez_traci\output_DQN\SD_DQN_trips.xml"/>
        <statistic-output value="Olivarez_traci\output_DQN\SD_DQN_stats.xml"/>
    </output>

    <time>
        <begin value="0"/>
        <end value="10800"/>
        <step-length value="0.1"/>
    </time>

    <processing>
        <lateral-resolution value="0.1"/>
        <collision.action value="none"/>
        <collision.check-junctions value="false"/>
        <collision.mingap-factor value="0"/>
    </processing>

    <report>
        <no-warnings value="true"/>
    </report>

    <traci_server>
        <remote-port value="51733"/>
    </traci_server>

    <gui_only>
        <delay value="0"/>
    </gui_only>

</sumoConfiguration>
-->

<tripinfos xmlns:xsi="http://www.w3.org/2001/XMLSchema-instance" xsi:noNamespaceSchemaLocation="http://sumo.dlr.de/xsd/tripinfo_file.xsd">
    <personinfo id="pf_2.0" depart="0.00" type="ped" speedFactor="0.93" duration="26.60" waitingTime="0.00" timeLoss="2.80" traveltime="26.60">
        <walk depart="0.00" departPos="15.09" arrival="26.60" arrivalPos="3.44" duration="26.60" routeLength="30.72" timeLoss="2.80" maxSpeed="1.29" waitingTime="0.00"/>
    </personinfo>
    <personinfo id="pf_2.2" depart="45.00" type="ped" speedFactor="1.10" duration="25.10" waitingTime="2.50" timeLoss="4.93" traveltime="25.10">
        <walk depart="45.00" departPos="15.09" arrival="70.10" arrivalPos="3.44" duration="25.10" routeLength="30.72" timeLoss="4.93" maxSpeed="1.52" waitingTime="2.50"/>
    </personinfo>
    <personinfo id="pf_2.1" depart="22.50" type="ped" speedFactor="1.06" duration="48.50" waitingTime="25.20" timeLoss="27.57" traveltime="48.50">
        <walk depart="22.50" departPos="15.09" arrival="71.00" arrivalPos="3.44" duration="48.50" routeLength="30.72" timeLoss="27.57" maxSpeed="1.47" waitingTime="25.20"/>
    </personinfo>
    <tripinfo id="A2_1.1" depart="16.40" departLane="-793339796#2_1" departPos="2.30" departPosLat="0.00" departSpeed="27.60" departDelay="0.00" arrival="75.90" arrivalLane="-440471861#0_2" arrivalPos="31.52" arrivalPosLat="0.00" arrivalSpeed="27.58" duration="59.50" routeLength="1084.07" waitingTime="0.00" waitingCount="0" stopTime="0.00" timeLoss="20.14" rerouteNo="1" devices="tripinfo_A2_1.1 routing_A2_1.1" vType="tricycle" speedFactor="0.99" vaporized=""/>
    <tripinfo id="A2_1.0" depart="8.90" departLane="-793339796#2_1" departPos="8.10" departPosLat="0.00" departSpeed="24.19" departDelay="0.00" arrival="88.80" arrivalLane="-440471861#0_1" arrivalPos="31.52" arrivalPosLat="0.00" arrivalSpeed="21.17" duration="79.90" routeLength="1078.27" waitingTime="0.00" waitingCount="0" stopTime="0.00" timeLoss="41.03" rerouteNo="1" devices="tripinfo_A2_1.0 routing_A2_1.0" vType="jeep" speedFactor="1.00" vaporized=""/>
    <personinfo id="pf_2.3" depart="67.50" type="ped" speedFactor="0.95" duration="25.90" waitingTime="0.00" timeLoss="2.72" traveltime="25.90">
        <walk depart="67.50" departPos="15.09" arrival="93.40" arrivalPos="3.44" duration="25.90" routeLength="30.72" timeLoss="2.72" maxSpeed="1.33" waitingTime="0.00"/>
    </personinfo>
    <tripinfo id="C3_1.1" depart="22.80" departLane="440471861#0_1" departPos="5.10" departPosLat="0.00" departSpeed="30.15" departDelay="0.00" arrival="97.70" arrivalLane="-140483224#1_1" arrivalPos="64.04" arrivalPosLat="-0.00" arrivalSpeed="30.09" duration="74.90" routeLength="1052.78" waitingTime="7.30" waitingCount="1" stopTime="0.00" timeLoss="38.70" rerouteNo="1" devices="tripinfo_C3_1.1 routing_C3_1.1" vType="car" speedFactor="1.09" vaporized=""/>
    <tripinfo id="D3_1.0" depart="15.30" departLane="140483224#1_1" departPos="2.30" departPosLat="0.00" departSpeed="24.29" departDelay="0.00" arrival="104.80" arrivalLane="-440471861#0_2" arrivalPos="31.52" arrivalPosLat="0.00" arrivalSpeed="24.20" duration="89.50" routeLength="1070.77" waitingTime="34.20" waitingCount="2" stopTime="0.00" timeLoss="43.67" rerouteNo="1" devices="tripinfo_D3_1.0 routing_D3_1.0" vType="motorcycle" speedFactor="0.87" vaporized=""/>
    <tripinfo id="C3_1.0" depart="8.60" departLane="440471861#0_1" departPos="7.20" departPosLat="0.00" departSpeed="27.65" departDelay="0.00" arrival="107.60" arrivalLane="-140483224#1_2" arrivalPos="64.04" arrivalPosLat="0.00" arrivalSpeed="27.65" duration="99.00" routeLength="1050.68" waitingTime="19.00" waitingCount="1" stopTime="0.00" timeLoss="59.61" rerouteNo="1" devices="tripinfo_C3_1.0 routing_C3_1.0" vType="truck" speedFactor="1.00" vaporized=""/>
    <personinfo id="pf_2.4" depart="90.00" type="ped" speedFactor="0.91" duration="27.20" waitingTime="0.00" timeLoss="2.81" traveltime="27.20">
        <walk depart="90.00" departPos="15.09" arrival="117.20" arrivalPos="3.44" duration="27.20" routeLength="30.72" timeLoss="2.81" maxSpeed="1.26" waitingTime="0.00"/>
    </personinfo>
    <tripinfo id="D1_1.0" depart="1.20" departLane="140483224#1_1" departPos="8.10" departPosLat="0.00" departSpeed="27.78" departDelay="0.00" arrival="129.90" arrivalLane="-793339796#2_2" arrivalPos="82.50" arrivalPosLat="0.00" arrivalSpeed="24.59" duration="128.70" routeLength="1645.38" waitingTime="10.60" waitingCount="2" stopTime="0.00" timeLoss="67.22" rerouteNo="1" devices="tripinfo_D1_1.0 routing_D1_1.0" vType="jeep" speedFactor="1.00" vaporized=""/>
    <tripinfo id="C2_1.0" depart="40.30" departLane="440471861#0_2" departPos="5.10" departPosLat="0.00" departSpeed="31.31" departDelay="0.00" arrival="131.50" arrivalLane="-145894807#0_1" arrivalPos="260.95" arrivalPosLat="0.00" arrivalSpeed="9.33" duration="91.20" routeLength="1082.07" waitingTime="0.00" waitingCount="0" stopTime="0.00" timeLoss="15.43" rerouteNo="1" devices="tripinfo_C2_1.0 routing_C2_1.0" vType="car" speedFactor="1.13" vaporized=""/>
    <tripinfo id="C1_1.0" depart="35.30" departLane="440471861#0_1" departPos="5.10" departPosLat="0.00" departSpeed="23.95" departDelay="0.00" arrival="133.70" arrivalLane="-793339796#2_2" arrivalPos="82.50" arrivalPosLat="0.00" arrivalSpeed="23.87" duration="98.40" routeLength="1653.99" waitingTime="0.00" waitingCount="0" stopTime="0.00" timeLoss="28.02" rerouteNo="1" devices="tripinfo_C1_1.0 routing_C1_1.0" vType="car" speedFactor="0.86" vaporized=""/>
    <personinfo id="pf_4.1" depart="22.50" type="ped" speedFactor="0.95" duration="124.50" waitingTime="0.00" timeLoss="12.54" traveltime="124.50">
        <walk depart="22.50" departPos="25.00" arrival="82.90" arrivalPos="29.11" duration="60.40" routeLength="72.15" timeLoss="5.95" maxSpeed="1.32" waitingTime="0.00"/>
        <walk depart="82.90" departPos="29.11" arrival="147.00" arrivalPos="29.05" duration="64.10" routeLength="76.20" timeLoss="6.59" maxSpeed="1.32" waitingTime="0.00"/>
    </personinfo>
    <personinfo id="pf_4.0" depart="0.00" type="ped" speedFactor="0.80" duration="147.30" waitingTime="0.00" timeLoss="14.44" traveltime="147.30">
        <walk depart="0.00" departPos="25.00" arrival="71.60" arrivalPos="29.11" duration="71.60" routeLength="72.15" timeLoss="6.98" maxSpeed="1.12" waitingTime="0.00"/>
        <walk depart="71.60" departPos="29.11" arrival="147.30" arrivalPos="29.05" duration="75.70" routeLength="76.20" timeLoss="7.45" maxSpeed="1.12" waitingTime="0.00"/>
    </personinfo>
    <personinfo id="pf_2.5" depart="112.50" type="ped" speedFactor="0.84" duration="43.00" waitingTime="13.80" timeLoss="16.74" traveltime="43.00">
        <walk depart="112.50" departPos="15.09" arrival="155.50" arrivalPos="3.44" duration="43.00" routeLength="30.72" timeLoss="16.74" maxSpeed="1.17" waitingTime="13.80"/>
    </personinfo>
    <tripinfo id="D2_1.0" depart="67.30" departLane="140483224#1_1" departPos="5.10" departPosLat="0.00" departSpeed="24.99" departDelay="0.00" arrival="163.70" arrivalLane="-145894807#0_1" arrivalPos="260.95" arrivalPosLat="0.00" arrivalSpeed="7.42" duration="96.40" routeLength="1092.76" waitingTime="0.00" waitingCount="0" stopTime="0.00" timeLoss="1.57" rerouteNo="1" devices="tripinfo_D2_1.0 routing_D2_1.0" vType="car" speedFactor="0.90" vaporized=""/>
    <tripinfo id="A2_1.2" depart="41.40" departLane="-793339796#2_1" departPos="8.10" departPosLat="0.00" departSpeed="24.19" departDelay="0.00" arrival="168.20" arrivalLane="-440471861#0_1" arrivalPos="31.52" arrivalPosLat="0.00" arrivalSpeed="21.34" duration="126.80" routeLength="1078.27" waitingTime="28.60" waitingCount="2" stopTime="0.00" timeLoss="87.97" rerouteNo="1" devices="tripinfo_A2_1.2 routing_A2_1.2" vType="jeep" speedFactor="1.00" vaporized=""/>
    <tripinfo id="A2_1.3" depart="54.10" departLane="-793339796#2_1" departPos="5.10" departPosLat="0.00" departSpeed="24.76" departDelay="0.00" arrival="169.60" arrivalLane="-440471861#0_1" arrivalPos="31.52" arrivalPosLat="-0.00" arrivalSpeed="23.68" duration="115.50" routeLength="1081.27" waitingTime="27.80" waitingCount="3" stopTime="0.00" timeLoss="71.79" rerouteNo="1" devices="tripinfo_A2_1.3 routing_A2_1.3" vType="car" speedFactor="0.89" vaporized=""/>
    <tripinfo id="A3_1.0" depart="31.00" departLane="-793339796#2_2" departPos="5.10" departPosLat="0.00" departSpeed="26.08" departDelay="0.00" arrival="171.10" arrivalLane="-140483224#1_2" arrivalPos="64.04" arrivalPosLat="0.00" arrivalSpeed="28.05" duration="140.10" routeLength="1080.94" waitingTime="67.50" waitingCount="3" stopTime="0.00" timeLoss="100.12" rerouteNo="1" devices="tripinfo_A3_1.0 routing_A3_1.0" vType="car" speedFactor="1.01" vaporized=""/>
    <personinfo id="pf_4.2" depart="45.00" type="ped" speedFactor="0.94" duration="126.50" waitingTime="0.00" timeLoss="12.51" traveltime="126.50">
        <walk depart="45.00" departPos="25.00" arrival="106.70" arrivalPos="29.11" duration="61.70" routeLength="72.15" timeLoss="6.26" maxSpeed="1.30" waitingTime="0.00"/>
        <walk depart="106.70" departPos="29.11" arrival="171.50" arrivalPos="29.05" duration="64.80" routeLength="76.20" timeLoss="6.25" maxSpeed="1.30" waitingTime="0.00"/>
    </personinfo>
    <personinfo id="pf_2.6" depart="135.00" type="ped" speedFactor="1.04" duration="37.30" waitingTime="13.60" timeLoss="16.11" traveltime="37.30">
        <walk depart="135.00" departPos="15.09" arrival="172.30" arrivalPos="3.44" duration="37.30" routeLength="30.72" timeLoss="16.11" maxSpeed="1.45" waitingTime="13.60"/>
    </personinfo>
    <personinfo id="pf_4.3" depart="67.50" type="ped" speedFactor="1.12" duration="105.90" waitingTime="0.00" timeLoss="10.70" traveltime="105.90">
        <walk depart="67.50" departPos="25.00" arrival="119.10" arrivalPos="29.11" duration="51.60" routeLength="72.15" timeLoss="5.30" maxSpeed="1.56" waitingTime="0.00"/>
        <walk depart="119.10" departPos="29.11" arrival="173.40" arrivalPos="29.05" duration="54.30" routeLength="76.20" timeLoss="5.40" maxSpeed="1.56" waitingTime="0.00"/>
    </personinfo>
    <tripinfo id="A3_1.1" depart="61.00" departLane="-793339796#2_1" departPos="7.20" departPosLat="0.00" departSpeed="24.33" departDelay="0.00" arrival="179.30" arrivalLane="-140483224#1_1" arrivalPos="64.04" arrivalPosLat="-0.00" arrivalSpeed="26.35" duration="118.30" routeLength="1078.84" waitingTime="24.00" waitingCount="3" stopTime="0.00" timeLoss="75.75" rerouteNo="1" devices="tripinfo_A3_1.1 routing_A3_1.1" vType="truck" speedFactor="0.95" vaporized=""/>
    <tripinfo id="C3_1.2" depart="47.20" departLane="440471861#0_1" departPos="5.10" departPosLat="0.00" departSpeed="27.02" departDelay="0.00" arrival="181.70" arrivalLane="-140483224#1_2" arrivalPos="64.04" arrivalPosLat="0.00" arrivalSpeed="26.92" duration="134.50" routeLength="1052.78" waitingTime="68.90" waitingCount="2" stopTime="0.00" timeLoss="94.17" rerouteNo="1" devices="tripinfo_C3_1.2 routing_C3_1.2" vType="car" speedFactor="0.97" vaporized=""/>
    <tripinfo id="B2_1.0" depart="13.90" departLane="-361257727#0_1" departPos="8.10" departPosLat="0.00" departSpeed="8.33" departDelay="0.00" arrival="186.50" arrivalLane="-440471861#0_1" arrivalPos="31.52" arrivalPosLat="-0.00" arrivalSpeed="21.33" duration="172.60" routeLength="1394.68" waitingTime="20.80" waitingCount="1" stopTime="0.00" timeLoss="55.90" rerouteNo="1" devices="tripinfo_B2_1.0 routing_B2_1.0" vType="jeep" speedFactor="1.00" vaporized=""/>
    <tripinfo id="D1_1.2" depart="74.50" departLane="140483224#1_1" departPos="5.10" departPosLat="0.00" departSpeed="25.44" departDelay="0.00" arrival="188.80" arrivalLane="-793339796#2_2" arrivalPos="82.50" arrivalPosLat="0.00" arrivalSpeed="16.66" duration="114.30" routeLength="1648.38" waitingTime="13.80" waitingCount="2" stopTime="0.00" timeLoss="46.84" rerouteNo="1" devices="tripinfo_D1_1.2 routing_D1_1.2" vType="car" speedFactor="0.92" vaporized=""/>
    <personinfo id="pf_2.7" depart="157.50" type="ped" speedFactor="0.97" duration="46.50" waitingTime="21.20" timeLoss="23.69" traveltime="46.50">
        <walk depart="157.50" departPos="15.09" arrival="204.00" arrivalPos="3.44" duration="46.50" routeLength="30.72" timeLoss="23.69" maxSpeed="1.35" waitingTime="21.20"/>
    </personinfo>
    <personinfo id="pf_2.8" depart="180.00" type="ped" speedFactor="0.96" duration="25.50" waitingTime="0.00" timeLoss="2.42" traveltime="25.50">
        <walk depart="180.00" departPos="15.09" arrival="205.50" arrivalPos="3.44" duration="25.50" routeLength="30.72" timeLoss="2.42" maxSpeed="1.33" waitingTime="0.00"/>
    </personinfo>
    <tripinfo id="A2_1.5" depart="130.30" departLane="-793339796#2_1" departPos="5.10" departPosLat="0.00" departSpeed="16.48" departDelay="0.40" arrival="208.90" arrivalLane="-440471861#0_2" arrivalPos="31.52" arrivalPosLat="0.00" arrivalSpeed="29.20" duration="78.60" routeLength="1081.27" waitingTime="11.10" waitingCount="1" stopTime="0.00" timeLoss="41.64" rerouteNo="1" devices="tripinfo_A2_1.5 routing_A2_1.5" vType="car" speedFactor="1.06" vaporized=""/>
    <personinfo id="pf_4.4" depart="90.00" type="ped" speedFactor="0.97" duration="122.20" waitingTime="0.00" timeLoss="11.88" traveltime="122.20">
        <walk depart="90.00" departPos="25.00" arrival="149.50" arrivalPos="29.11" duration="59.50" routeLength="72.15" timeLoss="5.85" maxSpeed="1.34" waitingTime="0.00"/>
        <walk depart="149.50" departPos="29.11" arrival="212.20" arrivalPos="29.05" duration="62.70" routeLength="76.20" timeLoss="6.04" maxSpeed="1.34" waitingTime="0.00"/>
    </personinfo>
    <tripinfo id="D1_1.3" depart="92.30" departLane="140483224#1_1" departPos="8.10" departPosLat="0.00" departSpeed="27.78" departDelay="0.00" arrival="213.90" arrivalLane="-793339796#2_2" arrivalPos="82.50" arrivalPosLat="0.00" arrivalSpeed="4.61" duration="121.60" routeLength="1645.38" waitingTime="2.60" waitingCount="1" stopTime="0.00" timeLoss="60.07" rerouteNo="1" devices="tripinfo_D1_1.3 routing_D1_1.3" vType="jeep" speedFactor="1.00" vaporized=""/>
    <tripinfo id="C2_1.1" depart="54.60" departLane="440471861#0_2" departPos="2.30" departPosLat="0.00" departSpeed="27.66" departDelay="0.00" arrival="216.30" arrivalLane="-145894807#0_1" arrivalPos="260.95" arrivalPosLat="0.00" arrivalSpeed="8.17" duration="161.70" routeLength="1084.87" waitingTime="67.80" waitingCount="1" stopTime="0.00" timeLoss="75.99" rerouteNo="1" devices="tripinfo_C2_1.1 routing_C2_1.1" vType="motorcycle" speedFactor="1.00" vaporized=""/>
    <tripinfo id="D1_1.1" depart="47.90" departLane="140483224#1_1" departPos="7.20" departPosLat="0.00" departSpeed="29.99" departDelay="0.00" arrival="216.50" arrivalLane="-793339796#2_2" arrivalPos="82.50" arrivalPosLat="0.00" arrivalSpeed="7.01" duration="168.60" routeLength="1646.28" waitingTime="34.50" waitingCount="2" stopTime="0.00" timeLoss="111.61" rerouteNo="1" devices="tripinfo_D1_1.1 routing_D1_1.1" vType="truck" speedFactor="1.08" vaporized=""/>
    <tripinfo id="A2_1.4" depart="125.80" departLane="-793339796#2_1" departPos="12.10" departPosLat="0.00" departSpeed="23.52" departDelay="0.00" arrival="219.40" arrivalLane="-440471861#0_1" arrivalPos="31.52" arrivalPosLat="0.00" arrivalSpeed="21.33" duration="93.60" routeLength="1074.27" waitingTime="1.90" waitingCount="1" stopTime="0.00" timeLoss="54.93" rerouteNo="1" devices="tripinfo_A2_1.4 routing_A2_1.4" vType="bus" speedFactor="1.00" vaporized=""/>
    <tripinfo id="A3_1.2" depart="127.10" departLane="-793339796#2_1" departPos="2.30" departPosLat="0.00" departSpeed="20.11" departDelay="0.00" arrival="224.40" arrivalLane="-140483224#1_2" arrivalPos="64.04" arrivalPosLat="0.00" arrivalSpeed="27.28" duration="97.30" routeLength="1083.74" waitingTime="26.40" waitingCount="3" stopTime="0.00" timeLoss="56.03" rerouteNo="1" devices="tripinfo_A3_1.2 routing_A3_1.2" vType="tricycle" speedFactor="0.98" vaporized=""/>
    <tripinfo id="C3_1.3" depart="87.10" departLane="440471861#0_1" departPos="5.10" departPosLat="0.00" departSpeed="28.17" departDelay="0.00" arrival="229.90" arrivalLane="-140483224#1_1" arrivalPos="64.04" arrivalPosLat="-0.00" arrivalSpeed="28.09" duration="142.80" routeLength="1052.78" waitingTime="62.60" waitingCount="2" stopTime="0.00" timeLoss="104.04" rerouteNo="1" devices="tripinfo_C3_1.3 routing_C3_1.3" vType="car" speedFactor="1.01" vaporized=""/>
    <tripinfo id="D2_1.1" depart="93.70" departLane="140483224#1_1" departPos="8.10" departPosLat="0.00" departSpeed="27.78" departDelay="0.00" arrival="229.90" arrivalLane="-145894807#0_1" arrivalPos="260.95" arrivalPosLat="0.00" arrivalSpeed="8.33" duration="136.20" routeLength="1089.76" waitingTime="39.60" waitingCount="1" stopTime="0.00" timeLoss="50.92" rerouteNo="1" devices="tripinfo_D2_1.1 routing_D2_1.1" vType="jeep" speedFactor="1.00" vaporized=""/>
    <tripinfo id="C1_1.2" depart="63.70" departLane="440471861#0_1" departPos="5.10" departPosLat="0.00" departSpeed="29.43" departDelay="0.00" arrival="231.70" arrivalLane="-793339796#2_2" arrivalPos="82.50" arrivalPosLat="0.00" arrivalSpeed="29.31" duration="168.00" routeLength="1653.99" waitingTime="56.70" waitingCount="2" stopTime="0.00" timeLoss="110.74" rerouteNo="1" devices="tripinfo_C1_1.2 routing_C1_1.2" vType="car" speedFactor="1.06" vaporized=""/>
    <personinfo id="pf_2.9" depart="202.50" type="ped" speedFactor="0.81" duration="30.00" waitingTime="0.00" timeLoss="2.77" traveltime="30.00">
        <walk depart="202.50" departPos="15.09" arrival="232.50" arrivalPos="3.44" duration="30.00" routeLength="30.72" timeLoss="2.77" maxSpeed="1.13" waitingTime="0.00"/>
    </personinfo>
    <personinfo id="pf_4.5" depart="112.50" type="ped" speedFactor="0.99" duration="120.50" waitingTime="0.00" timeLoss="12.39" traveltime="120.50">
        <walk depart="112.50" departPos="25.00" arrival="171.00" arrivalPos="29.11" duration="58.50" routeLength="72.15" timeLoss="5.92" maxSpeed="1.37" waitingTime="0.00"/>
        <walk depart="171.00" departPos="29.11" arrival="233.00" arrivalPos="29.05" duration="62.00" routeLength="76.20" timeLoss="6.47" maxSpeed="1.37" waitingTime="0.00"/>
    </personinfo>
    <tripinfo id="B2_1.1" depart="62.00" departLane="-361257727#0_1" departPos="7.20" departPosLat="0.00" departSpeed="8.50" departDelay="0.00" arrival="235.80" arrivalLane="-440471861#0_1" arrivalPos="31.52" arrivalPosLat="-0.00" arrivalSpeed="22.19" duration="173.80" routeLength="1395.58" waitingTime="25.60" waitingCount="1" stopTime="0.00" timeLoss="59.26" rerouteNo="1" devices="tripinfo_B2_1.1 routing_B2_1.1" vType="truck" speedFactor="1.02" vaporized=""/>
    <tripinfo id="D3_1.1" depart="179.60" departLane="140483224#1_2" departPos="5.10" departPosLat="0.00" departSpeed="32.17" departDelay="0.00" arrival="244.60" arrivalLane="-440471861#0_2" arrivalPos="31.52" arrivalPosLat="0.00" arrivalSpeed="31.47" duration="65.00" routeLength="1067.97" waitingTime="5.00" waitingCount="1" stopTime="0.00" timeLoss="30.47" rerouteNo="1" devices="tripinfo_D3_1.1 routing_D3_1.1" vType="car" speedFactor="1.16" vaporized=""/>
    <personinfo id="pf_2.10" depart="225.00" type="ped" speedFactor="1.04" duration="28.70" waitingTime="5.30" timeLoss="7.36" traveltime="28.70">
        <walk depart="225.00" departPos="15.09" arrival="253.70" arrivalPos="3.44" duration="28.70" routeLength="30.72" timeLoss="7.36" maxSpeed="1.44" waitingTime="5.30"/>
    </personinfo>
    <personinfo id="pf_4.6" depart="135.00" type="ped" speedFactor="0.95" duration="124.70" waitingTime="0.00" timeLoss="12.47" traveltime="124.70">
        <walk depart="135.00" departPos="25.00" arrival="195.80" arrivalPos="29.11" duration="60.80" routeLength="72.15" timeLoss="6.22" maxSpeed="1.32" waitingTime="0.00"/>
        <walk depart="195.80" departPos="29.11" arrival="259.70" arrivalPos="29.05" duration="63.90" routeLength="76.20" timeLoss="6.25" maxSpeed="1.32" waitingTime="0.00"/>
    </personinfo>
    <tripinfo id="A1_1.0" depart="157.90" departLane="-793339796#2_1" departPos="8.10" departPosLat="0.00" departSpeed="24.19" departDelay="0.00" arrival="264.70" arrivalLane="-145894807#0_1" arrivalPos="260.95" arrivalPosLat="0.00" arrivalSpeed="8.28" duration="106.80" routeLength="1053.72" waitingTime="0.00" waitingCount="0" stopTime="0.00" timeLoss="17.35" rerouteNo="1" devices="tripinfo_A1_1.0 routing_A1_1.0" vType="jeep" speedFactor="1.00" vaporized=""/>
    <tripinfo id="C1_1.1" depart="57.10" departLane="440471861#0_1" departPos="8.10" departPosLat="0.00" departSpeed="27.78" departDelay="0.00" arrival="266.30" arrivalLane="-793339796#2_2" arrivalPos="82.50" arrivalPosLat="0.00" arrivalSpeed="14.71" duration="209.20" routeLength="1650.99" waitingTime="60.70" waitingCount="3" stopTime="0.00" timeLoss="148.69" rerouteNo="1" devices="tripinfo_C1_1.1 routing_C1_1.1" vType="jeep" speedFactor="1.00" vaporized=""/>
    <tripinfo id="D1_1.5" depart="117.10" departLane="140483224#1_1" departPos="12.10" departPosLat="0.00" departSpeed="27.78" departDelay="0.00" arrival="268.80" arrivalLane="-793339796#2_2" arrivalPos="82.50" arrivalPosLat="0.00" arrivalSpeed="21.97" duration="151.70" routeLength="1641.38" waitingTime="19.00" waitingCount="2" stopTime="0.00" timeLoss="90.30" rerouteNo="1" devices="tripinfo_D1_1.5 routing_D1_1.5" vType="bus" speedFactor="1.00" vaporized=""/>
    <tripinfo id="D2_1.2" depart="134.80" departLane="140483224#1_1" departPos="2.30" departPosLat="0.00" departSpeed="31.57" departDelay="0.00" arrival="270.80" arrivalLane="-145894807#0_1" arrivalPos="260.95" arrivalPosLat="0.00" arrivalSpeed="9.41" duration="136.00" routeLength="1095.56" waitingTime="38.20" waitingCount="3" stopTime="0.00" timeLoss="60.80" rerouteNo="1" devices="tripinfo_D2_1.2 routing_D2_1.2" vType="tricycle" speedFactor="1.14" vaporized=""/>
    <tripinfo id="D1_1.4" depart="112.20" departLane="140483224#1_1" departPos="12.10" departPosLat="0.00" departSpeed="27.78" departDelay="0.00" arrival="273.00" arrivalLane="-793339796#2_2" arrivalPos="82.50" arrivalPosLat="0.00" arrivalSpeed="24.38" duration="160.80" routeLength="1641.38" waitingTime="22.90" waitingCount="2" stopTime="0.00" timeLoss="99.30" rerouteNo="1" devices="tripinfo_D1_1.4 routing_D1_1.4" vType="bus" speedFactor="1.00" vaporized=""/>
    <tripinfo id="A3_1.3" depart="173.20" departLane="-793339796#2_2" departPos="5.10" departPosLat="0.00" departSpeed="26.08" departDelay="0.00" arrival="273.50" arrivalLane="-140483224#1_2" arrivalPos="64.04" arrivalPosLat="0.00" arrivalSpeed="27.19" duration="100.30" routeLength="1080.94" waitingTime="23.90" waitingCount="4" stopTime="0.00" timeLoss="59.07" rerouteNo="1" devices="tripinfo_A3_1.3 routing_A3_1.3" vType="car" speedFactor="0.98" vaporized=""/>
    <personinfo id="pf_1.0" depart="0.00" type="ped" speedFactor="1.06" duration="274.00" waitingTime="38.40" timeLoss="62.30" traveltime="274.00">
        <walk depart="0.00" departPos="25.00" arrival="274.00" arrivalPos="3.44" duration="274.00" routeLength="311.67" timeLoss="62.30" maxSpeed="1.47" waitingTime="38.40"/>
    </personinfo>
    <personinfo id="pf_2.11" depart="247.50" type="ped" speedFactor="1.01" duration="27.20" waitingTime="2.90" timeLoss="5.33" traveltime="27.20">
        <walk depart="247.50" departPos="15.09" arrival="274.70" arrivalPos="3.44" duration="27.20" routeLength="30.72" timeLoss="5.33" maxSpeed="1.40" waitingTime="2.90"/>
    </personinfo>
    <tripinfo id="B1_1.0" depart="75.60" departLane="-361257727#0_1" departPos="5.10" departPosLat="0.00" departSpeed="8.88" departDelay="0.00" arrival="274.70" arrivalLane="-793339796#2_2" arrivalPos="82.50" arrivalPosLat="0.00" arrivalSpeed="28.50" duration="199.10" routeLength="1915.44" waitingTime="21.30" waitingCount="2" stopTime="0.00" timeLoss="72.76" rerouteNo="1" devices="tripinfo_B1_1.0 routing_B1_1.0" vType="car" speedFactor="1.07" vaporized=""/>
    <personinfo id="pf_4.7" depart="157.50" type="ped" speedFactor="1.00" duration="118.10" waitingTime="0.00" timeLoss="11.46" traveltime="118.10">
        <walk depart="157.50" departPos="25.00" arrival="214.80" arrivalPos="29.11" duration="57.30" routeLength="72.15" timeLoss="5.44" maxSpeed="1.39" waitingTime="0.00"/>
        <walk depart="214.80" departPos="29.11" arrival="275.60" arrivalPos="29.05" duration="60.80" routeLength="76.20" timeLoss="6.02" maxSpeed="1.39" waitingTime="0.00"/>
    </personinfo>
    <tripinfo id="B3_1.0" depart="127.70" departLane="-361257727#0_1" departPos="8.10" departPosLat="0.00" departSpeed="8.33" departDelay="0.00" arrival="278.00" arrivalLane="-140483224#1_1" arrivalPos="64.04" arrivalPosLat="0.00" arrivalSpeed="27.72" duration="150.30" routeLength="1407.94" waitingTime="9.00" waitingCount="1" stopTime="0.00" timeLoss="33.40" rerouteNo="1" devices="tripinfo_B3_1.0 routing_B3_1.0" vType="jeep" speedFactor="1.00" vaporized=""/>
    <tripinfo id="D2_1.3" depart="185.20" departLane="140483224#1_1" departPos="5.10" departPosLat="0.00" departSpeed="28.89" departDelay="0.00" arrival="284.70" arrivalLane="-145894807#0_1" arrivalPos="260.95" arrivalPosLat="0.00" arrivalSpeed="8.54" duration="99.50" routeLength="1092.76" waitingTime="3.60" waitingCount="1" stopTime="0.00" timeLoss="17.41" rerouteNo="1" devices="tripinfo_D2_1.3 routing_D2_1.3" vType="car" speedFactor="1.04" vaporized=""/>
    <tripinfo id="C3_1.4" depart="109.30" departLane="440471861#0_1" departPos="5.10" departPosLat="0.00" departSpeed="23.82" departDelay="0.00" arrival="285.40" arrivalLane="-140483224#1_1" arrivalPos="64.04" arrivalPosLat="0.00" arrivalSpeed="23.82" duration="176.10" routeLength="1052.78" waitingTime="87.50" waitingCount="4" stopTime="0.00" timeLoss="130.34" rerouteNo="1" devices="tripinfo_C3_1.4 routing_C3_1.4" vType="car" speedFactor="0.86" vaporized=""/>
    <tripinfo id="D3_1.2" depart="201.70" departLane="140483224#1_1" departPos="2.30" departPosLat="0.00" departSpeed="27.45" departDelay="0.00" arrival="286.20" arrivalLane="-440471861#0_2" arrivalPos="31.52" arrivalPosLat="0.00" arrivalSpeed="27.39" duration="84.50" routeLength="1070.77" waitingTime="32.80" waitingCount="2" stopTime="0.00" timeLoss="43.88" rerouteNo="1" devices="tripinfo_D3_1.2 routing_D3_1.2" vType="motorcycle" speedFactor="0.99" vaporized=""/>
    <tripinfo id="C3_1.5" depart="156.50" departLane="440471861#0_1" departPos="7.20" departPosLat="0.00" departSpeed="28.70" departDelay="0.00" arrival="290.20" arrivalLane="-140483224#1_2" arrivalPos="64.04" arrivalPosLat="0.00" arrivalSpeed="28.66" duration="133.70" routeLength="1050.68" waitingTime="42.10" waitingCount="3" stopTime="0.00" timeLoss="95.77" rerouteNo="1" devices="tripinfo_C3_1.5 routing_C3_1.5" vType="truck" speedFactor="1.03" vaporized=""/>
    <tripinfo id="C1_1.5" depart="131.40" departLane="440471861#0_1" departPos="5.10" departPosLat="0.00" departSpeed="27.71" departDelay="0.00" arrival="296.10" arrivalLane="-793339796#2_2" arrivalPos="82.50" arrivalPosLat="0.00" arrivalSpeed="27.69" duration="164.70" routeLength="1653.99" waitingTime="53.30" waitingCount="3" stopTime="0.00" timeLoss="103.83" rerouteNo="1" devices="tripinfo_C1_1.5 routing_C1_1.5" vType="car" speedFactor="1.00" vaporized=""/>
    <personinfo id="pf_4.8" depart="180.00" type="ped" speedFactor="0.96" duration="123.90" waitingTime="0.00" timeLoss="12.14" traveltime="123.90">
        <walk depart="180.00" departPos="25.00" arrival="240.10" arrivalPos="29.11" duration="60.10" routeLength="72.15" timeLoss="5.75" maxSpeed="1.33" waitingTime="0.00"/>
        <walk depart="240.10" departPos="29.11" arrival="303.90" arrivalPos="29.05" duration="63.80" routeLength="76.20" timeLoss="6.39" maxSpeed="1.33" waitingTime="0.00"/>
    </personinfo>
    <personinfo id="pf_2.12" depart="270.00" type="ped" speedFactor="0.97" duration="36.00" waitingTime="10.60" timeLoss="13.27" traveltime="36.00">
        <walk depart="270.00" departPos="15.09" arrival="306.00" arrivalPos="3.44" duration="36.00" routeLength="30.72" timeLoss="13.27" maxSpeed="1.35" waitingTime="10.60"/>
    </personinfo>
    <tripinfo id="C1_1.3" depart="82.10" departLane="440471861#0_1" departPos="7.20" departPosLat="0.00" departSpeed="27.96" departDelay="0.00" arrival="308.70" arrivalLane="-793339796#2_2" arrivalPos="82.50" arrivalPosLat="0.00" arrivalSpeed="25.02" duration="226.60" routeLength="1651.89" waitingTime="82.80" waitingCount="3" stopTime="0.00" timeLoss="166.46" rerouteNo="1" devices="tripinfo_C1_1.3 routing_C1_1.3" vType="truck" speedFactor="1.01" vaporized=""/>