<?xml version="1.0" encoding="UTF-8"?>

<!-- generated on 2025-11-08 01:52:18 by Eclipse SUMO sumo Version 1.24.0
<sumoConfiguration xmlns:xsi="http://www.w3.org/2001/XMLSchema-instance" xsi:noNamespaceSchemaLocation="http://sumo.dlr.de/xsd/sumoConfiguration.xsd">

    <input>
        <net-file value="Olivarez_traci\network/map.net.xml"/>
        <route-files value="Olivarez_traci\demand/demand.rou.xml"/>
        <additional-files value="Olivarez_traci\additionals/map.poly.xml,Olivarez_traci\ additionals/detectors.add.xml"/>
    </input>

    <output>
        <tripinfo-output value="Olivarez_traci\output_DQN\SD_DQN_trips.xml"/>
        <statistic-output value="Olivarez_traci\output_DQN\SD_DQN_stats.xml"/>
    </output>

    <time>
        <begin value="0"/>
        <end value="10000"/>
        <step-length value="0.05"/>
    </time>

    <processing>
        <lateral-resolution value="0.1"/>
        <collision.action value="none"/>
        <collision.check-junctions value="false"/>
        <collision.mingap-factor value="0"/>
    </processing>

    <report>
        <no-warnings value="true"/>
    </report>

    <traci_server>
        <remote-port value="53122"/>
    </traci_server>

    <gui_only>
        <delay value="0"/>
    </gui_only>

</sumoConfiguration>
-->

<tripinfos xmlns:xsi="http://www.w3.org/2001/XMLSchema-instance" xsi:noNamespaceSchemaLocation="http://sumo.dlr.de/xsd/tripinfo_file.xsd">
    <tripinfo id="D1_1.0" depart="0.60" departLane="140483224#12_1" departPos="2.30" departPosLat="0.00" departSpeed="29.11" departDelay="0.00" arrival="21.05" arrivalLane="-361256298#1_2" arrivalPos="36.33" arrivalPosLat="0.00" arrivalSpeed="18.66" duration="20.45" routeLength="372.24" waitingTime="0.00" waitingCount="0" stopTime="0.00" timeLoss="5.41" rerouteNo="1" devices="tripinfo_D1_1.0 routing_D1_1.0" vType="motorcycle" speedFactor="1.05" vaporized=""/>
    <tripinfo id="D3_1.0" depart="7.65" departLane="140483224#12_2" departPos="2.30" departPosLat="0.00" departSpeed="30.58" departDelay="0.00" arrival="25.60" arrivalLane="-440471861#6_2" arrivalPos="125.31" arrivalPosLat="0.00" arrivalSpeed="26.29" duration="17.95" routeLength="356.27" waitingTime="0.00" waitingCount="0" stopTime="0.00" timeLoss="4.96" rerouteNo="1" devices="tripinfo_D3_1.0 routing_D3_1.0" vType="tricycle" speedFactor="1.10" vaporized=""/>
    <tripinfo id="A2_1.0" depart="4.45" departLane="-361256298#1_1" departPos="2.30" departPosLat="0.00" departSpeed="27.87" departDelay="0.00" arrival="51.80" arrivalLane="-440471861#6_1" arrivalPos="125.31" arrivalPosLat="0.00" arrivalSpeed="26.14" duration="47.35" routeLength="392.91" waitingTime="22.90" waitingCount="1" stopTime="0.00" timeLoss="33.21" rerouteNo="1" devices="tripinfo_A2_1.0 routing_A2_1.0" vType="tricycle" speedFactor="1.00" vaporized=""/>
    <tripinfo id="B1_1.0" depart="37.80" departLane="939610874_1" departPos="5.10" departPosLat="0.00" departSpeed="8.31" departDelay="0.00" arrival="71.70" arrivalLane="-361256298#1_1" arrivalPos="36.33" arrivalPosLat="0.00" arrivalSpeed="13.12" duration="33.90" routeLength="274.95" waitingTime="0.00" waitingCount="0" stopTime="0.00" timeLoss="3.02" rerouteNo="1" devices="tripinfo_B1_1.0 routing_B1_1.0" vType="car" speedFactor="1.00" vaporized=""/>
    <tripinfo id="B2_1.0" depart="31.00" departLane="939610874_1" departPos="2.30" departPosLat="0.00" departSpeed="8.01" departDelay="0.00" arrival="91.10" arrivalLane="-440471861#6_1" arrivalPos="125.31" arrivalPosLat="0.00" arrivalSpeed="26.60" duration="60.10" routeLength="392.97" waitingTime="24.95" waitingCount="1" stopTime="0.00" timeLoss="27.98" rerouteNo="1" devices="tripinfo_B2_1.0 routing_B2_1.0" vType="motorcycle" speedFactor="0.96" vaporized=""/>
    <tripinfo id="B2_1.1" depart="64.60" departLane="939610874_1" departPos="8.10" departPosLat="0.00" departSpeed="7.55" departDelay="0.00" arrival="101.20" arrivalLane="-440471861#6_1" arrivalPos="125.31" arrivalPosLat="0.00" arrivalSpeed="25.13" duration="36.60" routeLength="387.17" waitingTime="0.00" waitingCount="0" stopTime="0.00" timeLoss="3.33" rerouteNo="1" devices="tripinfo_B2_1.1 routing_B2_1.1" vType="jeep" speedFactor="0.91" vaporized=""/>
    <tripinfo id="B2_1.2" depart="75.15" departLane="939610874_1" departPos="8.10" departPosLat="0.00" departSpeed="7.90" departDelay="0.00" arrival="110.45" arrivalLane="-440471861#6_1" arrivalPos="125.31" arrivalPosLat="0.00" arrivalSpeed="26.30" duration="35.30" routeLength="387.17" waitingTime="0.00" waitingCount="0" stopTime="0.00" timeLoss="3.42" rerouteNo="1" devices="tripinfo_B2_1.2 routing_B2_1.2" vType="jeep" speedFactor="0.95" vaporized=""/>
    <personinfo id="pf_1.0" depart="0.00" type="ped" speedFactor="1.06" duration="114.30" waitingTime="0.00" timeLoss="11.44" traveltime="114.30">
        <walk depart="0.00" departPos="25.00" arrival="114.30" arrivalPos="7.46" duration="114.30" routeLength="151.44" timeLoss="11.44" maxSpeed="1.47" waitingTime="0.00"/>
    </personinfo>
    <tripinfo id="C3_1.0" depart="43.55" departLane="440471861#6_1" departPos="2.30" departPosLat="0.00" departSpeed="27.72" departDelay="0.00" arrival="139.20" arrivalLane="-140483224#12_1" arrivalPos="63.66" arrivalPosLat="0.00" arrivalSpeed="21.27" duration="95.65" routeLength="344.12" waitingTime="72.20" waitingCount="1" stopTime="0.00" timeLoss="82.11" rerouteNo="1" devices="tripinfo_C3_1.0 routing_C3_1.0" vType="tricycle" speedFactor="1.00" vaporized=""/>
    <tripinfo id="C3_1.1" depart="78.25" departLane="440471861#6_1" departPos="5.10" departPosLat="0.00" departSpeed="28.39" departDelay="0.00" arrival="141.05" arrivalLane="-140483224#12_1" arrivalPos="63.66" arrivalPosLat="0.00" arrivalSpeed="21.59" duration="62.80" routeLength="341.32" waitingTime="32.85" waitingCount="1" stopTime="0.00" timeLoss="49.65" rerouteNo="1" devices="tripinfo_C3_1.1 routing_C3_1.1" vType="car" speedFactor="1.02" vaporized=""/>
    <tripinfo id="C2_1.0" depart="20.15" departLane="440471861#6_2" departPos="2.30" departPosLat="0.00" departSpeed="24.97" departDelay="0.00" arrival="147.65" arrivalLane="939610874_1" arrivalPos="50.72" arrivalPosLat="0.00" arrivalSpeed="7.47" duration="127.50" routeLength="342.54" waitingTime="96.15" waitingCount="1" stopTime="0.00" timeLoss="100.95" rerouteNo="1" devices="tripinfo_C2_1.0 routing_C2_1.0" vType="tricycle" speedFactor="0.90" vaporized=""/>
    <tripinfo id="C1_1.0" depart="31.85" departLane="440471861#6_2" departPos="5.10" departPosLat="0.00" departSpeed="28.44" departDelay="0.00" arrival="149.05" arrivalLane="-361256298#1_2" arrivalPos="36.33" arrivalPosLat="0.00" arrivalSpeed="12.26" duration="117.20" routeLength="431.28" waitingTime="79.60" waitingCount="1" stopTime="0.00" timeLoss="100.91" rerouteNo="1" devices="tripinfo_C1_1.0 routing_C1_1.0" vType="car" speedFactor="1.02" vaporized=""/>
    <tripinfo id="D3_1.1" depart="100.85" departLane="140483224#12_2" departPos="5.10" departPosLat="0.00" departSpeed="29.33" departDelay="0.00" arrival="149.80" arrivalLane="-440471861#6_2" arrivalPos="125.31" arrivalPosLat="0.00" arrivalSpeed="29.18" duration="48.95" routeLength="353.47" waitingTime="20.75" waitingCount="2" stopTime="0.00" timeLoss="35.51" rerouteNo="1" devices="tripinfo_D3_1.1 routing_D3_1.1" vType="car" speedFactor="1.06" vaporized=""/>
    <tripinfo id="C1_1.1" depart="41.05" departLane="440471861#6_2" departPos="5.10" departPosLat="0.00" departSpeed="31.09" departDelay="0.00" arrival="151.90" arrivalLane="-361256298#1_2" arrivalPos="36.33" arrivalPosLat="0.00" arrivalSpeed="12.63" duration="110.85" routeLength="431.28" waitingTime="71.20" waitingCount="1" stopTime="0.00" timeLoss="95.99" rerouteNo="1" devices="tripinfo_C1_1.1 routing_C1_1.1" vType="car" speedFactor="1.12" vaporized=""/>
    <tripinfo id="D1_1.1" depart="46.15" departLane="140483224#12_1" departPos="2.30" departPosLat="0.00" departSpeed="27.42" departDelay="0.00" arrival="153.80" arrivalLane="-361256298#1_2" arrivalPos="36.33" arrivalPosLat="0.00" arrivalSpeed="18.32" duration="107.65" routeLength="372.24" waitingTime="79.35" waitingCount="2" stopTime="0.00" timeLoss="91.69" rerouteNo="1" devices="tripinfo_D1_1.1 routing_D1_1.1" vType="motorcycle" speedFactor="0.99" vaporized=""/>
    <tripinfo id="D1_1.2" depart="58.55" departLane="140483224#12_1" departPos="5.10" departPosLat="0.00" departSpeed="26.04" departDelay="0.00" arrival="159.85" arrivalLane="-361256298#1_2" arrivalPos="36.33" arrivalPosLat="0.00" arrivalSpeed="12.30" duration="101.30" routeLength="369.44" waitingTime="60.15" waitingCount="2" stopTime="0.00" timeLoss="84.98" rerouteNo="1" devices="tripinfo_D1_1.2 routing_D1_1.2" vType="car" speedFactor="0.96" vaporized=""/>
    <tripinfo id="D1_1.3" depart="118.00" departLane="140483224#12_1" departPos="5.10" departPosLat="0.00" departSpeed="28.00" departDelay="0.00" arrival="163.00" arrivalLane="-361256298#1_2" arrivalPos="36.33" arrivalPosLat="0.00" arrivalSpeed="12.53" duration="45.00" routeLength="369.44" waitingTime="10.10" waitingCount="1" stopTime="0.00" timeLoss="29.83" rerouteNo="1" devices="tripinfo_D1_1.3 routing_D1_1.3" vType="car" speedFactor="1.03" vaporized=""/>
    <personinfo id="pf_1.2" depart="72.00" type="ped" speedFactor="1.01" duration="128.05" waitingTime="8.10" timeLoss="20.14" traveltime="128.05">
        <walk depart="72.00" departPos="25.00" arrival="200.05" arrivalPos="7.46" duration="128.05" routeLength="151.44" timeLoss="20.14" maxSpeed="1.40" waitingTime="8.10"/>
    </personinfo>
    <personinfo id="pf_1.1" depart="36.00" type="ped" speedFactor="0.94" duration="167.35" waitingTime="38.25" timeLoss="51.14" traveltime="167.35">
        <walk depart="36.00" departPos="25.00" arrival="203.35" arrivalPos="7.46" duration="167.35" routeLength="151.44" timeLoss="51.14" maxSpeed="1.30" waitingTime="38.25"/>
    </personinfo>
    <tripinfo id="B1_1.1" depart="171.30" departLane="939610874_1" departPos="12.10" departPosLat="0.00" departSpeed="8.33" departDelay="0.00" arrival="205.20" arrivalLane="-361256298#1_1" arrivalPos="36.33" arrivalPosLat="0.00" arrivalSpeed="9.95" duration="33.90" routeLength="267.95" waitingTime="0.00" waitingCount="0" stopTime="0.00" timeLoss="3.92" rerouteNo="1" devices="tripinfo_B1_1.1 routing_B1_1.1" vType="bus" speedFactor="1.00" vaporized=""/>
    <tripinfo id="A3_1.0" depart="107.30" departLane="-361256298#1_2" departPos="5.10" departPosLat="0.00" departSpeed="31.05" departDelay="0.00" arrival="206.00" arrivalLane="-140483224#12_2" arrivalPos="63.66" arrivalPosLat="0.00" arrivalSpeed="21.42" duration="98.70" routeLength="336.68" waitingTime="64.35" waitingCount="3" stopTime="0.00" timeLoss="86.51" rerouteNo="1" devices="tripinfo_A3_1.0 routing_A3_1.0" vType="car" speedFactor="1.12" vaporized=""/>
    <tripinfo id="A3_1.1" depart="152.70" departLane="-361256298#1_2" departPos="5.10" departPosLat="0.00" departSpeed="8.99" departDelay="4.20" arrival="206.05" arrivalLane="-140483224#12_1" arrivalPos="63.66" arrivalPosLat="-0.00" arrivalSpeed="21.44" duration="53.35" routeLength="336.68" waitingTime="14.50" waitingCount="1" stopTime="0.00" timeLoss="40.84" rerouteNo="1" devices="tripinfo_A3_1.1 routing_A3_1.1" vType="car" speedFactor="1.09" vaporized=""/>
    <tripinfo id="A1_1.0" depart="78.95" departLane="-361256298#1_1" departPos="2.30" departPosLat="0.00" departSpeed="25.78" departDelay="0.00" arrival="210.50" arrivalLane="939610874_1" arrivalPos="50.72" arrivalPosLat="0.00" arrivalSpeed="7.59" duration="131.55" routeLength="320.04" waitingTime="103.45" waitingCount="1" stopTime="0.00" timeLoss="105.69" rerouteNo="1" devices="tripinfo_A1_1.0 routing_A1_1.0" vType="motorcycle" speedFactor="0.93" vaporized=""/>
    <tripinfo id="A1_1.1" depart="125.65" departLane="-361256298#1_1" departPos="5.10" departPosLat="0.00" departSpeed="25.51" departDelay="0.00" arrival="212.60" arrivalLane="939610874_1" arrivalPos="50.72" arrivalPosLat="0.00" arrivalSpeed="7.64" duration="86.95" routeLength="317.24" waitingTime="50.85" waitingCount="1" stopTime="0.00" timeLoss="60.94" rerouteNo="1" devices="tripinfo_A1_1.1 routing_A1_1.1" vType="car" speedFactor="0.92" vaporized=""/>
    <tripinfo id="A1_1.2" depart="154.60" departLane="-361256298#1_1" departPos="7.20" departPosLat="0.00" departSpeed="26.36" departDelay="0.00" arrival="215.20" arrivalLane="939610874_1" arrivalPos="50.72" arrivalPosLat="0.00" arrivalSpeed="7.89" duration="60.60" routeLength="315.14" waitingTime="22.70" waitingCount="1" stopTime="0.00" timeLoss="35.52" rerouteNo="1" devices="tripinfo_A1_1.2 routing_A1_1.2" vType="truck" speedFactor="0.95" vaporized=""/>
    <personinfo id="pf_1.3" depart="108.00" type="ped" speedFactor="1.08" duration="111.85" waitingTime="0.00" timeLoss="11.14" traveltime="111.85">
        <walk depart="108.00" departPos="25.00" arrival="219.85" arrivalPos="7.46" duration="111.85" routeLength="151.44" timeLoss="11.14" maxSpeed="1.50" waitingTime="0.00"/>
    </personinfo>
    <tripinfo id="B2_1.3" depart="198.55" departLane="939610874_1" departPos="8.10" departPosLat="0.00" departSpeed="7.05" departDelay="0.00" arrival="237.35" arrivalLane="-440471861#6_1" arrivalPos="125.31" arrivalPosLat="0.00" arrivalSpeed="23.51" duration="38.80" routeLength="387.17" waitingTime="0.00" waitingCount="0" stopTime="0.00" timeLoss="3.15" rerouteNo="1" devices="tripinfo_B2_1.3 routing_B2_1.3" vType="jeep" speedFactor="0.85" vaporized=""/>
    <personinfo id="pf_1.4" depart="144.00" type="ped" speedFactor="1.03" duration="117.60" waitingTime="0.00" timeLoss="11.77" traveltime="117.60">
        <walk depart="144.00" departPos="25.00" arrival="261.60" arrivalPos="7.46" duration="117.60" routeLength="151.44" timeLoss="11.77" maxSpeed="1.43" waitingTime="0.00"/>
    </personinfo>
    <tripinfo id="B3_1.0" depart="241.30" departLane="939610874_1" departPos="5.10" departPosLat="0.00" departSpeed="8.80" departDelay="0.00" arrival="272.85" arrivalLane="-140483224#12_1" arrivalPos="63.66" arrivalPosLat="0.00" arrivalSpeed="27.04" duration="31.55" routeLength="349.72" waitingTime="0.00" waitingCount="0" stopTime="0.00" timeLoss="4.32" rerouteNo="1" devices="tripinfo_B3_1.0 routing_B3_1.0" vType="car" speedFactor="1.06" vaporized=""/>
    <tripinfo id="C3_1.2" depart="161.95" departLane="440471861#6_1" departPos="8.10" departPosLat="0.00" departSpeed="30.06" departDelay="0.00" arrival="282.85" arrivalLane="-140483224#12_1" arrivalPos="63.66" arrivalPosLat="0.00" arrivalSpeed="24.60" duration="120.90" routeLength="338.32" waitingTime="99.10" waitingCount="1" stopTime="0.00" timeLoss="108.61" rerouteNo="1" devices="tripinfo_C3_1.2 routing_C3_1.2" vType="jeep" speedFactor="1.08" vaporized=""/>
    <tripinfo id="C3_1.3" depart="180.75" departLane="440471861#6_1" departPos="5.10" departPosLat="0.00" departSpeed="27.83" departDelay="0.00" arrival="285.05" arrivalLane="-140483224#12_1" arrivalPos="63.66" arrivalPosLat="0.00" arrivalSpeed="24.43" duration="104.30" routeLength="341.32" waitingTime="76.10" waitingCount="1" stopTime="0.00" timeLoss="90.93" rerouteNo="1" devices="tripinfo_C3_1.3 routing_C3_1.3" vType="car" speedFactor="1.00" vaporized=""/>
    <tripinfo id="C2_1.1" depart="161.10" departLane="440471861#6_2" departPos="5.10" departPosLat="0.00" departSpeed="28.25" departDelay="0.00" arrival="290.65" arrivalLane="939610874_1" arrivalPos="50.72" arrivalPosLat="0.00" arrivalSpeed="8.46" duration="129.55" routeLength="339.74" waitingTime="99.65" waitingCount="1" stopTime="0.00" timeLoss="106.16" rerouteNo="1" devices="tripinfo_C2_1.1 routing_C2_1.1" vType="car" speedFactor="1.02" vaporized=""/>
    <tripinfo id="C2_1.2" depart="289.65" departLane="440471861#6_2" departPos="8.10" departPosLat="0.00" departSpeed="26.67" departDelay="0.00" arrival="315.55" arrivalLane="939610874_1" arrivalPos="50.72" arrivalPosLat="0.00" arrivalSpeed="8.11" duration="25.90" routeLength="336.74" waitingTime="0.00" waitingCount="0" stopTime="0.00" timeLoss="1.73" rerouteNo="1" devices="tripinfo_C2_1.2 routing_C2_1.2" vType="jeep" speedFactor="0.98" vaporized=""/>
    <tripinfo id="D3_1.2" depart="208.30" departLane="140483224#12_2" departPos="2.30" departPosLat="0.00" departSpeed="28.39" departDelay="0.00" arrival="327.30" arrivalLane="-440471861#6_2" arrivalPos="125.31" arrivalPosLat="0.00" arrivalSpeed="25.35" duration="119.00" routeLength="356.27" waitingTime="95.85" waitingCount="1" stopTime="0.00" timeLoss="105.04" rerouteNo="1" devices="tripinfo_D3_1.2 routing_D3_1.2" vType="tricycle" speedFactor="1.02" vaporized=""/>
    <personinfo id="pf_1.6" depart="216.00" type="ped" speedFactor="1.05" duration="117.90" waitingTime="2.10" timeLoss="13.64" traveltime="117.90">
        <walk depart="216.00" departPos="25.00" arrival="333.90" arrivalPos="7.46" duration="117.90" routeLength="151.44" timeLoss="13.64" maxSpeed="1.45" waitingTime="2.10"/>
    </personinfo>
    <personinfo id="pf_1.5" depart="180.00" type="ped" speedFactor="0.83" duration="164.00" waitingTime="18.05" timeLoss="32.79" traveltime="164.00">
        <walk depart="180.00" departPos="25.00" arrival="344.00" arrivalPos="7.46" duration="164.00" routeLength="151.44" timeLoss="32.79" maxSpeed="1.15" waitingTime="18.05"/>
    </personinfo>
    <tripinfo id="D1_1.4" depart="178.90" departLane="140483224#12_1" departPos="5.10" departPosLat="0.00" departSpeed="28.39" departDelay="0.00" arrival="349.60" arrivalLane="-361256298#1_2" arrivalPos="36.33" arrivalPosLat="0.00" arrivalSpeed="12.50" duration="170.70" routeLength="369.44" waitingTime="130.15" waitingCount="3" stopTime="0.00" timeLoss="155.40" rerouteNo="1" devices="tripinfo_D1_1.4 routing_D1_1.4" vType="car" speedFactor="1.02" vaporized=""/>
    <tripinfo id="D1_1.5" depart="226.35" departLane="140483224#12_1" departPos="5.10" departPosLat="0.00" departSpeed="23.16" departDelay="0.00" arrival="353.40" arrivalLane="-361256298#1_2" arrivalPos="36.33" arrivalPosLat="0.00" arrivalSpeed="12.20" duration="127.05" routeLength="369.44" waitingTime="79.30" waitingCount="3" stopTime="0.00" timeLoss="108.29" rerouteNo="1" devices="tripinfo_D1_1.5 routing_D1_1.5" vType="car" speedFactor="0.83" vaporized=""/>
    <tripinfo id="C1_1.2" depart="288.55" departLane="440471861#6_2" departPos="12.10" departPosLat="0.00" departSpeed="27.78" departDelay="0.00" arrival="358.75" arrivalLane="-361256298#1_2" arrivalPos="36.33" arrivalPosLat="0.00" arrivalSpeed="8.98" duration="70.20" routeLength="424.28" waitingTime="29.85" waitingCount="1" stopTime="0.00" timeLoss="53.84" rerouteNo="1" devices="tripinfo_C1_1.2 routing_C1_1.2" vType="bus" speedFactor="1.00" vaporized=""/>
    <tripinfo id="D1_1.6" depart="290.45" departLane="140483224#12_1" departPos="5.10" departPosLat="0.00" departSpeed="30.69" departDelay="5.60" arrival="365.15" arrivalLane="-361256298#1_2" arrivalPos="36.33" arrivalPosLat="0.00" arrivalSpeed="12.57" duration="74.70" routeLength="369.44" waitingTime="43.25" waitingCount="1" stopTime="0.00" timeLoss="60.95" rerouteNo="1" devices="tripinfo_D1_1.6 routing_D1_1.6" vType="car" speedFactor="1.14" vaporized=""/>
    <tripinfo id="D2_1.0" depart="290.60" departLane="140483224#12_1" departPos="2.30" departPosLat="0.00" departSpeed="22.21" departDelay="0.30" arrival="366.00" arrivalLane="939610874_1" arrivalPos="50.72" arrivalPosLat="0.00" arrivalSpeed="7.91" duration="75.40" routeLength="296.22" waitingTime="39.30" waitingCount="1" stopTime="0.00" timeLoss="52.56" rerouteNo="1" devices="tripinfo_D2_1.0 routing_D2_1.0" vType="motorcycle" speedFactor="0.96" vaporized=""/>
    <tripinfo id="A2_1.2" depart="337.55" departLane="-361256298#1_1" departPos="2.30" departPosLat="0.00" departSpeed="29.58" departDelay="0.00" arrival="372.90" arrivalLane="-440471861#6_2" arrivalPos="125.31" arrivalPosLat="0.00" arrivalSpeed="29.48" duration="35.35" routeLength="392.91" waitingTime="8.50" waitingCount="1" stopTime="0.00" timeLoss="22.04" rerouteNo="1" devices="tripinfo_A2_1.2 routing_A2_1.2" vType="motorcycle" speedFactor="1.06" vaporized=""/>
    <tripinfo id="A3_1.2" depart="227.15" departLane="-361256298#1_2" departPos="5.10" departPosLat="0.00" departSpeed="29.23" departDelay="0.00" arrival="373.55" arrivalLane="-140483224#12_2" arrivalPos="63.66" arrivalPosLat="0.00" arrivalSpeed="25.54" duration="146.40" routeLength="336.68" waitingTime="124.00" waitingCount="1" stopTime="0.00" timeLoss="133.49" rerouteNo="1" devices="tripinfo_A3_1.2 routing_A3_1.2" vType="car" speedFactor="1.05" vaporized=""/>
    <tripinfo id="A2_1.1" depart="261.45" departLane="-361256298#1_1" departPos="5.10" departPosLat="0.00" departSpeed="23.91" departDelay="0.00" arrival="380.95" arrivalLane="-440471861#6_2" arrivalPos="125.31" arrivalPosLat="0.00" arrivalSpeed="23.88" duration="119.50" routeLength="390.11" waitingTime="90.30" waitingCount="1" stopTime="0.00" timeLoss="103.15" rerouteNo="1" devices="tripinfo_A2_1.1 routing_A2_1.1" vType="car" speedFactor="0.86" vaporized=""/>
    <tripinfo id="A1_1.3" depart="222.65" departLane="-361256298#1_1" departPos="2.30" departPosLat="0.00" departSpeed="26.18" departDelay="0.00" arrival="397.05" arrivalLane="939610874_1" arrivalPos="50.72" arrivalPosLat="0.00" arrivalSpeed="7.81" duration="174.40" routeLength="320.04" waitingTime="139.00" waitingCount="2" stopTime="0.00" timeLoss="148.96" rerouteNo="1" devices="tripinfo_A1_1.3 routing_A1_1.3" vType="tricycle" speedFactor="0.94" vaporized=""/>
    <tripinfo id="A1_1.4" depart="277.50" departLane="-361256298#1_1" departPos="5.10" departPosLat="0.00" departSpeed="25.18" departDelay="0.00" arrival="399.60" arrivalLane="939610874_1" arrivalPos="50.72" arrivalPosLat="0.00" arrivalSpeed="7.54" duration="122.10" routeLength="317.24" waitingTime="75.40" waitingCount="3" stopTime="0.00" timeLoss="95.76" rerouteNo="1" devices="tripinfo_A1_1.4 routing_A1_1.4" vType="car" speedFactor="0.91" vaporized=""/>
    <tripinfo id="A1_1.5" depart="322.60" departLane="-361256298#1_1" departPos="7.20" departPosLat="0.00" departSpeed="27.15" departDelay="0.00" arrival="401.50" arrivalLane="939610874_1" arrivalPos="50.72" arrivalPosLat="0.00" arrivalSpeed="8.63" duration="78.90" routeLength="315.14" waitingTime="26.95" waitingCount="2" stopTime="0.00" timeLoss="55.96" rerouteNo="1" devices="tripinfo_A1_1.5 routing_A1_1.5" vType="truck" speedFactor="1.04" vaporized=""/>
    <tripinfo id="A1_1.6" depart="329.65" departLane="-361256298#1_1" departPos="5.10" departPosLat="0.00" departSpeed="26.75" departDelay="0.00" arrival="405.30" arrivalLane="939610874_1" arrivalPos="50.72" arrivalPosLat="-0.00" arrivalSpeed="8.10" duration="75.65" routeLength="317.24" waitingTime="41.60" waitingCount="1" stopTime="0.00" timeLoss="51.20" rerouteNo="1" devices="tripinfo_A1_1.6 routing_A1_1.6" vType="car" speedFactor="0.98" vaporized=""/>
    <tripinfo id="A1_1.7" depart="342.40" departLane="-361256298#1_1" departPos="5.10" departPosLat="0.00" departSpeed="27.10" departDelay="0.00" arrival="406.95" arrivalLane="939610874_1" arrivalPos="50.72" arrivalPosLat="0.00" arrivalSpeed="10.35" duration="64.55" routeLength="317.24" waitingTime="26.40" waitingCount="1" stopTime="0.00" timeLoss="45.37" rerouteNo="1" devices="tripinfo_A1_1.7 routing_A1_1.7" vType="car" speedFactor="1.25" vaporized=""/>
    <tripinfo id="B2_1.4" depart="306.80" departLane="939610874_1" departPos="5.10" departPosLat="0.00" departSpeed="8.86" departDelay="0.00" arrival="410.40" arrivalLane="-440471861#6_1" arrivalPos="125.31" arrivalPosLat="0.00" arrivalSpeed="28.84" duration="103.60" routeLength="390.17" waitingTime="66.30" waitingCount="1" stopTime="0.00" timeLoss="74.88" rerouteNo="1" devices="tripinfo_B2_1.4 routing_B2_1.4" vType="car" speedFactor="1.06" vaporized=""/>
    <tripinfo id="B1_2.0" depart="381.65" departLane="939610874_1" departPos="8.10" departPosLat="0.00" departSpeed="8.35" departDelay="0.00" arrival="415.05" arrivalLane="-361256298#1_1" arrivalPos="36.33" arrivalPosLat="0.00" arrivalSpeed="13.12" duration="33.40" routeLength="271.95" waitingTime="0.00" waitingCount="0" stopTime="0.00" timeLoss="3.02" rerouteNo="1" devices="tripinfo_B1_2.0 routing_B1_2.0" vType="jeep" speedFactor="1.00" vaporized=""/>
    <tripinfo id="A1_2.0" depart="381.50" departLane="-361256298#1_1" departPos="8.10" departPosLat="0.00" departSpeed="20.38" departDelay="0.00" arrival="416.35" arrivalLane="939610874_1" arrivalPos="50.72" arrivalPosLat="0.00" arrivalSpeed="6.06" duration="34.85" routeLength="314.24" waitingTime="0.00" waitingCount="0" stopTime="0.00" timeLoss="2.43" rerouteNo="1" devices="tripinfo_A1_2.0 routing_A1_2.0" vType="jeep" speedFactor="0.73" vaporized=""/>
    <tripinfo id="B2_2.0" depart="406.40" departLane="939610874_1" departPos="5.10" departPosLat="0.00" departSpeed="7.58" departDelay="0.00" arrival="443.25" arrivalLane="-440471861#6_1" arrivalPos="125.31" arrivalPosLat="0.00" arrivalSpeed="25.22" duration="36.85" routeLength="390.17" waitingTime="0.00" waitingCount="0" stopTime="0.00" timeLoss="3.27" rerouteNo="1" devices="tripinfo_B2_2.0 routing_B2_2.0" vType="car" speedFactor="0.91" vaporized=""/>
    <personinfo id="pf_1.8" depart="288.00" type="ped" speedFactor="0.94" duration="155.60" waitingTime="26.65" timeLoss="39.34" traveltime="155.60">
        <walk depart="288.00" departPos="25.00" arrival="443.60" arrivalPos="7.46" duration="155.60" routeLength="151.44" timeLoss="39.34" maxSpeed="1.30" waitingTime="26.65"/>
    </personinfo>
    <personinfo id="pf_1.7" depart="252.00" type="ped" speedFactor="0.89" duration="194.05" waitingTime="57.50" timeLoss="70.98" traveltime="194.05">
        <walk depart="252.00" departPos="25.00" arrival="446.05" arrivalPos="7.46" duration="194.05" routeLength="151.44" timeLoss="70.98" maxSpeed="1.23" waitingTime="57.50"/>
    </personinfo>
    <tripinfo id="B2_2.1" depart="412.45" departLane="939610874_1" departPos="5.10" departPosLat="0.00" departSpeed="2.36" departDelay="0.90" arrival="449.40" arrivalLane="-440471861#6_1" arrivalPos="125.31" arrivalPosLat="0.00" arrivalSpeed="27.53" duration="36.95" routeLength="390.17" waitingTime="0.00" waitingCount="0" stopTime="0.00" timeLoss="6.19" rerouteNo="1" devices="tripinfo_B2_2.1 routing_B2_2.1" vType="car" speedFactor="0.99" vaporized=""/>
    <tripinfo id="B1_2.1" depart="410.70" departLane="939610874_1" departPos="5.10" departPosLat="0.00" departSpeed="3.58" departDelay="0.00" arrival="450.40" arrivalLane="-361256298#1_1" arrivalPos="36.33" arrivalPosLat="0.00" arrivalSpeed="12.97" duration="39.70" routeLength="274.95" waitingTime="0.00" waitingCount="0" stopTime="0.00" timeLoss="4.62" rerouteNo="1" devices="tripinfo_B1_2.1 routing_B1_2.1" vType="car" speedFactor="0.88" vaporized=""/>
    <tripinfo id="B1_2.2" depart="425.15" departLane="939610874_1" departPos="12.10" departPosLat="0.00" departSpeed="8.33" departDelay="0.00" arrival="459.05" arrivalLane="-361256298#1_1" arrivalPos="36.33" arrivalPosLat="0.00" arrivalSpeed="10.03" duration="33.90" routeLength="267.95" waitingTime="0.00" waitingCount="0" stopTime="0.00" timeLoss="3.93" rerouteNo="1" devices="tripinfo_B1_2.2 routing_B1_2.2" vType="bus" speedFactor="1.00" vaporized=""/>
    <personinfo id="pf_1.9" depart="324.00" type="ped" speedFactor="0.86" duration="141.20" waitingTime="0.00" timeLoss="13.96" traveltime="141.20">
        <walk depart="324.00" departPos="25.00" arrival="465.20" arrivalPos="7.46" duration="141.20" routeLength="151.44" timeLoss="13.96" maxSpeed="1.19" waitingTime="0.00"/>
    </personinfo>
    <tripinfo id="C2_2.0" depart="379.20" departLane="440471861#6_2" departPos="7.20" departPosLat="0.00" departSpeed="30.06" departDelay="0.00" arrival="480.90" arrivalLane="939610874_1" arrivalPos="50.72" arrivalPosLat="0.00" arrivalSpeed="9.00" duration="101.70" routeLength="337.64" waitingTime="64.35" waitingCount="1" stopTime="0.00" timeLoss="79.78" rerouteNo="1" devices="tripinfo_C2_2.0 routing_C2_2.0" vType="truck" speedFactor="1.08" vaporized=""/>
    <tripinfo id="C2_2.1" depart="400.55" departLane="440471861#6_2" departPos="5.10" departPosLat="0.00" departSpeed="27.27" departDelay="0.00" arrival="486.35" arrivalLane="939610874_1" arrivalPos="50.72" arrivalPosLat="0.00" arrivalSpeed="9.26" duration="85.80" routeLength="339.74" waitingTime="43.90" waitingCount="1" stopTime="0.00" timeLoss="65.64" rerouteNo="1" devices="tripinfo_C2_2.1 routing_C2_2.1" vType="car" speedFactor="1.18" vaporized=""/>
    <tripinfo id="C2_2.2" depart="401.10" departLane="440471861#6_2" departPos="2.30" departPosLat="0.00" departSpeed="22.20" departDelay="0.00" arrival="491.45" arrivalLane="939610874_1" arrivalPos="50.72" arrivalPosLat="0.00" arrivalSpeed="6.07" duration="90.35" routeLength="342.54" waitingTime="42.60" waitingCount="1" stopTime="0.00" timeLoss="66.61" rerouteNo="1" devices="tripinfo_C2_2.2 routing_C2_2.2" vType="tricycle" speedFactor="1.01" vaporized=""/>
    <tripinfo id="C2_2.3" depart="426.35" departLane="440471861#6_2" departPos="8.10" departPosLat="0.00" departSpeed="29.83" departDelay="0.00" arrival="493.10" arrivalLane="939610874_1" arrivalPos="50.72" arrivalPosLat="0.00" arrivalSpeed="8.89" duration="66.75" routeLength="336.74" waitingTime="22.20" waitingCount="1" stopTime="0.00" timeLoss="44.71" rerouteNo="1" devices="tripinfo_C2_2.3 routing_C2_2.3" vType="jeep" speedFactor="1.07" vaporized=""/>
    <tripinfo id="C2_2.4" depart="448.60" departLane="440471861#6_2" departPos="5.10" departPosLat="0.00" departSpeed="26.02" departDelay="0.00" arrival="495.15" arrivalLane="939610874_1" arrivalPos="50.72" arrivalPosLat="0.00" arrivalSpeed="8.81" duration="46.55" routeLength="339.74" waitingTime="0.00" waitingCount="0" stopTime="0.00" timeLoss="24.18" rerouteNo="1" devices="tripinfo_C2_2.4 routing_C2_2.4" vType="car" speedFactor="1.06" vaporized=""/>