<?xml version="1.0" encoding="UTF-8"?>

<!-- generated on 2025-11-18 16:29:32 by Eclipse SUMO GUI Version 1.24.0
<sumoConfiguration xmlns:xsi="http://www.w3.org/2001/XMLSchema-instance" xsi:noNamespaceSchemaLocation="http://sumo.dlr.de/xsd/sumoConfiguration.xsd">

    <input>
        <net-file value="Olivarez_traci\network/map.net.xml"/>
        <route-files value="Olivarez_traci\demand/flows_normal_traffic.rou.xml"/>
        <additional-files value="Olivarez_traci\additionals/map.poly.xml,Olivarez_traci\ additionals/detectors.add.xml"/>
    </input>

    <output>
        <tripinfo-output value="Olivarez_traci\output_DQN\SD_DQN_trips.xml"/>
        <statistic-output value="Olivarez_traci\output_DQN\SD_DQN_stats.xml"/>
    </output>

    <time>
        <begin value="0"/>
        <end value="10800"/>
        <step-length value="0.05"/>
    </time>

    <processing>
        <lateral-resolution value="0.1"/>
        <collision.action value="none"/>
        <collision.check-junctions value="false"/>
        <collision.mingap-factor value="0"/>
    </processing>

    <report>
        <no-warnings value="true"/>
    </report>

    <traci_server>
        <remote-port value="55841"/>
    </traci_server>

    <gui_only>
        <delay value="0"/>
    </gui_only>

</sumoConfiguration>
-->

<tripinfos xmlns:xsi="http://www.w3.org/2001/XMLSchema-instance" xsi:noNamespaceSchemaLocation="http://sumo.dlr.de/xsd/tripinfo_file.xsd">
    <personinfo id="pf_2.0" depart="0.00" type="ped" speedFactor="1.06" duration="49.85" waitingTime="27.00" timeLoss="29.34" traveltime="49.85">
        <walk depart="0.00" departPos="15.72" arrival="49.85" arrivalPos="4.00" duration="49.85" routeLength="30.33" timeLoss="29.34" maxSpeed="1.48" waitingTime="27.00"/>
    </personinfo>
    <tripinfo id="D3_1.0" depart="7.65" departLane="140483224#1_1" departPos="12.10" departPosLat="0.00" departSpeed="27.78" departDelay="0.00" arrival="55.75" arrivalLane="-440471861#0_2" arrivalPos="31.49" arrivalPosLat="0.00" arrivalSpeed="27.78" duration="48.10" routeLength="1062.09" waitingTime="0.00" waitingCount="0" stopTime="0.00" timeLoss="8.43" rerouteNo="1" devices="tripinfo_D3_1.0 routing_D3_1.0" vType="bus" speedFactor="1.00" vaporized=""/>
    <personinfo id="pf_2.1" depart="36.00" type="ped" speedFactor="0.96" duration="25.20" waitingTime="0.00" timeLoss="2.37" traveltime="25.20">
        <walk depart="36.00" departPos="15.72" arrival="61.20" arrivalPos="4.00" duration="25.20" routeLength="30.33" timeLoss="2.37" maxSpeed="1.33" waitingTime="0.00"/>
    </personinfo>
    <tripinfo id="A2_1.0" depart="4.45" departLane="-793339796#2_1" departPos="5.10" departPosLat="0.00" departSpeed="23.90" departDelay="0.00" arrival="63.85" arrivalLane="-440471861#0_1" arrivalPos="31.49" arrivalPosLat="0.00" arrivalSpeed="23.87" duration="59.40" routeLength="1081.89" waitingTime="5.55" waitingCount="1" stopTime="0.00" timeLoss="14.10" rerouteNo="1" devices="tripinfo_A2_1.0 routing_A2_1.0" vType="car" speedFactor="0.86" vaporized=""/>
    <tripinfo id="D1_1.0" depart="0.60" departLane="140483224#1_1" departPos="5.10" departPosLat="0.00" departSpeed="27.72" departDelay="0.00" arrival="75.55" arrivalLane="-793339796#2_2" arrivalPos="83.13" arrivalPosLat="0.00" arrivalSpeed="27.70" duration="74.95" routeLength="1648.45" waitingTime="0.00" waitingCount="0" stopTime="0.00" timeLoss="13.15" rerouteNo="1" devices="tripinfo_D1_1.0 routing_D1_1.0" vType="car" speedFactor="1.00" vaporized=""/>
    <tripinfo id="C3_1.0" depart="43.55" departLane="440471861#0_1" departPos="5.10" departPosLat="0.00" departSpeed="31.29" departDelay="0.00" arrival="89.60" arrivalLane="-140483224#1_1" arrivalPos="64.17" arrivalPosLat="-0.00" arrivalSpeed="37.94" duration="46.05" routeLength="1053.93" waitingTime="0.00" waitingCount="0" stopTime="0.00" timeLoss="17.50" rerouteNo="1" devices="tripinfo_C3_1.0 routing_C3_1.0" vType="car" speedFactor="1.37" vaporized=""/>
    <tripinfo id="C1_1.0" depart="31.85" departLane="440471861#0_1" departPos="2.30" departPosLat="0.00" departSpeed="30.91" departDelay="0.00" arrival="110.10" arrivalLane="-793339796#2_2" arrivalPos="83.13" arrivalPosLat="0.00" arrivalSpeed="30.78" duration="78.25" routeLength="1656.83" waitingTime="14.30" waitingCount="1" stopTime="0.00" timeLoss="23.65" rerouteNo="1" devices="tripinfo_C1_1.0 routing_C1_1.0" vType="motorcycle" speedFactor="1.11" vaporized=""/>
    <tripinfo id="C1_1.1" depart="41.05" departLane="440471861#0_1" departPos="5.10" departPosLat="0.00" departSpeed="26.89" departDelay="0.00" arrival="122.90" arrivalLane="-793339796#2_2" arrivalPos="83.13" arrivalPosLat="0.00" arrivalSpeed="26.88" duration="81.85" routeLength="1654.03" waitingTime="1.35" waitingCount="1" stopTime="0.00" timeLoss="19.21" rerouteNo="1" devices="tripinfo_C1_1.1 routing_C1_1.1" vType="car" speedFactor="0.97" vaporized=""/>
    <tripinfo id="C2_1.0" depart="20.15" departLane="440471861#0_2" departPos="5.10" departPosLat="0.00" departSpeed="27.59" departDelay="0.00" arrival="138.15" arrivalLane="-145894807#0_1" arrivalPos="260.97" arrivalPosLat="0.00" arrivalSpeed="8.24" duration="118.00" routeLength="1099.91" waitingTime="23.25" waitingCount="1" stopTime="0.00" timeLoss="30.06" rerouteNo="1" devices="tripinfo_C2_1.0 routing_C2_1.0" vType="car" speedFactor="0.99" vaporized=""/>
    <tripinfo id="C3_1.1" depart="78.25" departLane="440471861#0_1" departPos="5.10" departPosLat="0.00" departSpeed="28.72" departDelay="0.00" arrival="141.65" arrivalLane="-140483224#1_1" arrivalPos="64.17" arrivalPosLat="-0.00" arrivalSpeed="28.69" duration="63.40" routeLength="1053.93" waitingTime="16.25" waitingCount="1" stopTime="0.00" timeLoss="25.59" rerouteNo="1" devices="tripinfo_C3_1.1 routing_C3_1.1" vType="car" speedFactor="1.03" vaporized=""/>
    <tripinfo id="D1_1.1" depart="46.15" departLane="140483224#1_1" departPos="7.20" departPosLat="0.00" departSpeed="28.76" departDelay="0.00" arrival="143.70" arrivalLane="-793339796#2_2" arrivalPos="83.13" arrivalPosLat="0.00" arrivalSpeed="25.08" duration="97.55" routeLength="1646.35" waitingTime="7.40" waitingCount="1" stopTime="0.00" timeLoss="38.06" rerouteNo="1" devices="tripinfo_D1_1.1 routing_D1_1.1" vType="truck" speedFactor="1.04" vaporized=""/>
    <personinfo id="pf_2.2" depart="72.00" type="ped" speedFactor="0.97" duration="74.65" waitingTime="49.50" timeLoss="52.09" traveltime="74.65">
        <walk depart="72.00" departPos="15.72" arrival="146.65" arrivalPos="4.00" duration="74.65" routeLength="30.33" timeLoss="52.09" maxSpeed="1.34" waitingTime="49.50"/>
    </personinfo>
    <personinfo id="pf_2.3" depart="108.00" type="ped" speedFactor="0.95" duration="38.80" waitingTime="13.35" timeLoss="15.87" traveltime="38.80">
        <walk depart="108.00" departPos="15.72" arrival="146.80" arrivalPos="4.00" duration="38.80" routeLength="30.33" timeLoss="15.87" maxSpeed="1.32" waitingTime="13.35"/>
    </personinfo>
    <tripinfo id="D3_1.1" depart="100.85" departLane="140483224#1_2" departPos="5.10" departPosLat="0.00" departSpeed="24.05" departDelay="0.00" arrival="154.90" arrivalLane="-440471861#0_2" arrivalPos="31.49" arrivalPosLat="0.00" arrivalSpeed="24.04" duration="54.05" routeLength="1069.09" waitingTime="0.45" waitingCount="1" stopTime="0.00" timeLoss="7.92" rerouteNo="1" devices="tripinfo_D3_1.1 routing_D3_1.1" vType="car" speedFactor="0.87" vaporized=""/>
    <tripinfo id="A3_1.0" depart="107.30" departLane="-793339796#2_1" departPos="7.20" departPosLat="0.00" departSpeed="27.33" departDelay="0.00" arrival="170.55" arrivalLane="-140483224#1_2" arrivalPos="64.17" arrivalPosLat="0.00" arrivalSpeed="27.31" duration="63.25" routeLength="1079.61" waitingTime="5.85" waitingCount="1" stopTime="0.00" timeLoss="22.21" rerouteNo="1" devices="tripinfo_A3_1.0 routing_A3_1.0" vType="truck" speedFactor="0.98" vaporized=""/>
    <tripinfo id="B2_1.0" depart="64.60" departLane="-361257727#0_1" departPos="2.30" departPosLat="0.00" departSpeed="9.38" departDelay="0.00" arrival="176.80" arrivalLane="-440471861#0_1" arrivalPos="31.49" arrivalPosLat="0.00" arrivalSpeed="31.19" duration="112.20" routeLength="1417.09" waitingTime="1.60" waitingCount="1" stopTime="0.00" timeLoss="6.20" rerouteNo="1" devices="tripinfo_B2_1.0 routing_B2_1.0" vType="motorcycle" speedFactor="1.13" vaporized=""/>
    <tripinfo id="D1_1.2" depart="58.55" departLane="140483224#1_1" departPos="5.10" departPosLat="0.00" departSpeed="26.59" departDelay="0.00" arrival="211.10" arrivalLane="-793339796#2_2" arrivalPos="83.13" arrivalPosLat="0.00" arrivalSpeed="26.55" duration="152.55" routeLength="1648.45" waitingTime="64.60" waitingCount="2" stopTime="0.00" timeLoss="88.11" rerouteNo="1" devices="tripinfo_D1_1.2 routing_D1_1.2" vType="car" speedFactor="0.96" vaporized=""/>
    <tripinfo id="A3_1.1" depart="148.50" departLane="-793339796#2_2" departPos="5.10" departPosLat="0.00" departSpeed="27.95" departDelay="0.00" arrival="213.10" arrivalLane="-140483224#1_2" arrivalPos="64.17" arrivalPosLat="0.00" arrivalSpeed="27.91" duration="64.60" routeLength="1081.71" waitingTime="15.80" waitingCount="1" stopTime="0.00" timeLoss="24.38" rerouteNo="1" devices="tripinfo_A3_1.1 routing_A3_1.1" vType="car" speedFactor="1.01" vaporized=""/>
    <tripinfo id="B2_1.1" depart="75.15" departLane="-361257727#0_1" departPos="2.30" departPosLat="0.00" departSpeed="8.63" departDelay="0.00" arrival="228.70" arrivalLane="-440471861#0_1" arrivalPos="31.49" arrivalPosLat="0.00" arrivalSpeed="28.71" duration="153.55" routeLength="1417.09" waitingTime="34.00" waitingCount="1" stopTime="0.00" timeLoss="38.42" rerouteNo="1" devices="tripinfo_B2_1.1 routing_B2_1.1" vType="motorcycle" speedFactor="1.04" vaporized=""/>
    <tripinfo id="C3_1.2" depart="161.95" departLane="440471861#0_1" departPos="2.30" departPosLat="0.00" departSpeed="29.09" departDelay="0.00" arrival="238.90" arrivalLane="-140483224#1_1" arrivalPos="64.17" arrivalPosLat="-0.00" arrivalSpeed="28.96" duration="76.95" routeLength="1056.73" waitingTime="34.45" waitingCount="1" stopTime="0.00" timeLoss="39.50" rerouteNo="1" devices="tripinfo_C3_1.2 routing_C3_1.2" vType="motorcycle" speedFactor="1.05" vaporized=""/>
    <tripinfo id="D1_1.3" depart="118.00" departLane="140483224#1_1" departPos="8.10" departPosLat="0.00" departSpeed="27.78" departDelay="0.00" arrival="246.95" arrivalLane="-793339796#2_2" arrivalPos="83.13" arrivalPosLat="0.00" arrivalSpeed="24.38" duration="128.95" routeLength="1645.45" waitingTime="27.95" waitingCount="2" stopTime="0.00" timeLoss="67.38" rerouteNo="1" devices="tripinfo_D1_1.3 routing_D1_1.3" vType="jeep" speedFactor="1.00" vaporized=""/>
    <personinfo id="pf_2.5" depart="180.00" type="ped" speedFactor="1.07" duration="70.15" waitingTime="47.45" timeLoss="49.79" traveltime="70.15">
        <walk depart="180.00" departPos="15.72" arrival="250.15" arrivalPos="4.00" duration="70.15" routeLength="30.33" timeLoss="49.79" maxSpeed="1.49" waitingTime="47.45"/>
    </personinfo>
    <personinfo id="pf_2.6" depart="216.00" type="ped" speedFactor="1.01" duration="34.90" waitingTime="11.10" timeLoss="13.36" traveltime="34.90">
        <walk depart="216.00" departPos="15.72" arrival="250.90" arrivalPos="4.00" duration="34.90" routeLength="30.33" timeLoss="13.36" maxSpeed="1.41" waitingTime="11.10"/>
    </personinfo>
    <personinfo id="pf_2.4" depart="144.00" type="ped" speedFactor="0.89" duration="108.85" waitingTime="81.95" timeLoss="84.42" traveltime="108.85">
        <walk depart="144.00" departPos="15.72" arrival="252.85" arrivalPos="4.00" duration="108.85" routeLength="30.33" timeLoss="84.42" maxSpeed="1.24" waitingTime="81.95"/>
    </personinfo>
    <tripinfo id="D3_1.2" depart="208.30" departLane="140483224#1_2" departPos="5.10" departPosLat="0.00" departSpeed="27.62" departDelay="0.00" arrival="253.20" arrivalLane="-440471861#0_2" arrivalPos="31.49" arrivalPosLat="0.00" arrivalSpeed="27.57" duration="44.90" routeLength="1069.09" waitingTime="0.00" waitingCount="0" stopTime="0.00" timeLoss="4.73" rerouteNo="1" devices="tripinfo_D3_1.2 routing_D3_1.2" vType="car" speedFactor="0.99" vaporized=""/>
    <personinfo id="pf_2.7" depart="252.00" type="ped" speedFactor="1.03" duration="23.50" waitingTime="0.00" timeLoss="2.39" traveltime="23.50">
        <walk depart="252.00" departPos="15.72" arrival="275.50" arrivalPos="4.00" duration="23.50" routeLength="30.33" timeLoss="2.39" maxSpeed="1.44" waitingTime="0.00"/>
    </personinfo>
    <tripinfo id="C3_1.3" depart="180.75" departLane="440471861#0_1" departPos="8.10" departPosLat="0.00" departSpeed="27.78" departDelay="0.00" arrival="277.70" arrivalLane="-140483224#1_1" arrivalPos="64.17" arrivalPosLat="-0.00" arrivalSpeed="27.77" duration="96.95" routeLength="1050.93" waitingTime="26.70" waitingCount="2" stopTime="0.00" timeLoss="57.96" rerouteNo="1" devices="tripinfo_C3_1.3 routing_C3_1.3" vType="jeep" speedFactor="1.00" vaporized=""/>
    <tripinfo id="C2_1.1" depart="161.10" departLane="440471861#0_2" departPos="5.10" departPosLat="0.00" departSpeed="30.46" departDelay="0.00" arrival="283.45" arrivalLane="-145894807#0_1" arrivalPos="260.97" arrivalPosLat="0.00" arrivalSpeed="9.13" duration="122.35" routeLength="1099.91" waitingTime="35.25" waitingCount="1" stopTime="0.00" timeLoss="42.70" rerouteNo="1" devices="tripinfo_C2_1.1 routing_C2_1.1" vType="car" speedFactor="1.10" vaporized=""/>
    <tripinfo id="A1_1.0" depart="222.65" departLane="-793339796#2_1" departPos="5.10" departPosLat="0.00" departSpeed="29.12" departDelay="0.00" arrival="311.80" arrivalLane="-145894807#0_1" arrivalPos="260.97" arrivalPosLat="0.00" arrivalSpeed="8.69" duration="89.15" routeLength="1057.45" waitingTime="0.00" waitingCount="0" stopTime="0.00" timeLoss="3.75" rerouteNo="1" devices="tripinfo_A1_1.0 routing_A1_1.0" vType="car" speedFactor="1.05" vaporized=""/>
    <tripinfo id="A2_1.2" depart="261.45" departLane="-793339796#2_1" departPos="2.30" departPosLat="0.00" departSpeed="21.47" departDelay="0.00" arrival="320.35" arrivalLane="-440471861#0_1" arrivalPos="31.49" arrivalPosLat="0.00" arrivalSpeed="21.44" duration="58.90" routeLength="1084.69" waitingTime="2.20" waitingCount="1" stopTime="0.00" timeLoss="8.38" rerouteNo="1" devices="tripinfo_A2_1.2 routing_A2_1.2" vType="motorcycle" speedFactor="0.77" vaporized=""/>
    <tripinfo id="A2_1.1" depart="252.35" departLane="-793339796#2_1" departPos="5.10" departPosLat="0.00" departSpeed="24.00" departDelay="0.00" arrival="322.70" arrivalLane="-440471861#0_1" arrivalPos="31.49" arrivalPosLat="0.00" arrivalSpeed="23.99" duration="70.35" routeLength="1081.89" waitingTime="14.45" waitingCount="1" stopTime="0.00" timeLoss="25.27" rerouteNo="1" devices="tripinfo_A2_1.1 routing_A2_1.1" vType="car" speedFactor="0.86" vaporized=""/>
    <tripinfo id="A3_1.2" depart="227.15" departLane="-793339796#2_1" departPos="7.20" departPosLat="0.00" departSpeed="26.14" departDelay="0.00" arrival="326.80" arrivalLane="-140483224#1_2" arrivalPos="64.17" arrivalPosLat="0.00" arrivalSpeed="26.12" duration="99.65" routeLength="1079.61" waitingTime="33.35" waitingCount="2" stopTime="0.00" timeLoss="56.77" rerouteNo="1" devices="tripinfo_A3_1.2 routing_A3_1.2" vType="truck" speedFactor="0.94" vaporized=""/>
    <tripinfo id="A2_1.3" depart="265.25" departLane="-793339796#2_1" departPos="8.10" departPosLat="0.00" departSpeed="23.68" departDelay="0.00" arrival="327.40" arrivalLane="-440471861#0_1" arrivalPos="31.49" arrivalPosLat="0.00" arrivalSpeed="27.77" duration="62.15" routeLength="1078.89" waitingTime="0.00" waitingCount="0" stopTime="0.00" timeLoss="23.29" rerouteNo="1" devices="tripinfo_A2_1.3 routing_A2_1.3" vType="jeep" speedFactor="1.00" vaporized=""/>
    <tripinfo id="A3_1.3" depart="256.80" departLane="-793339796#2_1" departPos="7.20" departPosLat="0.00" departSpeed="26.77" departDelay="0.00" arrival="328.10" arrivalLane="-140483224#1_2" arrivalPos="64.17" arrivalPosLat="0.00" arrivalSpeed="26.74" duration="71.30" routeLength="1079.61" waitingTime="8.75" waitingCount="1" stopTime="0.00" timeLoss="29.41" rerouteNo="1" devices="tripinfo_A3_1.3 routing_A3_1.3" vType="truck" speedFactor="0.96" vaporized=""/>
    <tripinfo id="A3_1.4" depart="289.75" departLane="-793339796#2_1" departPos="7.20" departPosLat="0.00" departSpeed="28.00" departDelay="0.00" arrival="336.90" arrivalLane="-140483224#1_2" arrivalPos="64.17" arrivalPosLat="0.00" arrivalSpeed="27.98" duration="47.15" routeLength="1079.61" waitingTime="0.00" waitingCount="0" stopTime="0.00" timeLoss="7.10" rerouteNo="1" devices="tripinfo_A3_1.4 routing_A3_1.4" vType="truck" speedFactor="1.01" vaporized=""/>
    <tripinfo id="D1_1.4" depart="178.90" departLane="140483224#1_1" departPos="8.10" departPosLat="0.00" departSpeed="27.78" departDelay="0.00" arrival="336.95" arrivalLane="-793339796#2_2" arrivalPos="83.13" arrivalPosLat="0.00" arrivalSpeed="24.38" duration="158.05" routeLength="1645.45" waitingTime="55.60" waitingCount="2" stopTime="0.00" timeLoss="96.46" rerouteNo="1" devices="tripinfo_D1_1.4 routing_D1_1.4" vType="jeep" speedFactor="1.00" vaporized=""/>
    <tripinfo id="C1_1.2" depart="231.00" departLane="440471861#0_1" departPos="8.10" departPosLat="0.00" departSpeed="27.78" departDelay="0.00" arrival="343.90" arrivalLane="-793339796#2_2" arrivalPos="83.13" arrivalPosLat="0.00" arrivalSpeed="24.40" duration="112.90" routeLength="1651.03" waitingTime="19.20" waitingCount="1" stopTime="0.00" timeLoss="52.38" rerouteNo="1" devices="tripinfo_C1_1.2 routing_C1_1.2" vType="jeep" speedFactor="1.00" vaporized=""/>
    <tripinfo id="B1_1.0" depart="171.30" departLane="-361257727#0_1" departPos="5.10" departPosLat="0.00" departSpeed="7.20" departDelay="0.00" arrival="345.35" arrivalLane="-793339796#2_2" arrivalPos="83.13" arrivalPosLat="0.00" arrivalSpeed="23.98" duration="174.05" routeLength="1915.62" waitingTime="0.35" waitingCount="1" stopTime="0.00" timeLoss="18.30" rerouteNo="1" devices="tripinfo_B1_1.0 routing_B1_1.0" vType="car" speedFactor="0.86" vaporized=""/>
    <tripinfo id="D1_1.5" depart="226.35" departLane="140483224#1_1" departPos="5.10" departPosLat="0.00" departSpeed="27.67" departDelay="0.00" arrival="347.00" arrivalLane="-793339796#2_2" arrivalPos="83.13" arrivalPosLat="0.00" arrivalSpeed="27.66" duration="120.65" routeLength="1648.45" waitingTime="33.85" waitingCount="1" stopTime="0.00" timeLoss="58.73" rerouteNo="1" devices="tripinfo_D1_1.5 routing_D1_1.5" vType="car" speedFactor="1.00" vaporized=""/>
    <tripinfo id="B2_1.2" depart="198.55" departLane="-361257727#0_1" departPos="8.10" departPosLat="0.00" departSpeed="8.33" departDelay="0.00" arrival="347.40" arrivalLane="-440471861#0_2" arrivalPos="31.49" arrivalPosLat="0.00" arrivalSpeed="27.76" duration="148.85" routeLength="1411.29" waitingTime="10.75" waitingCount="1" stopTime="0.00" timeLoss="30.23" rerouteNo="1" devices="tripinfo_B2_1.2 routing_B2_1.2" vType="jeep" speedFactor="1.00" vaporized=""/>
    <tripinfo id="A2_1.4" depart="337.55" departLane="-793339796#2_1" departPos="2.30" departPosLat="0.00" departSpeed="27.38" departDelay="0.00" arrival="377.30" arrivalLane="-440471861#0_1" arrivalPos="31.49" arrivalPosLat="0.00" arrivalSpeed="27.36" duration="39.75" routeLength="1084.69" waitingTime="0.00" waitingCount="0" stopTime="0.00" timeLoss="0.12" rerouteNo="1" devices="tripinfo_A2_1.4 routing_A2_1.4" vType="motorcycle" speedFactor="0.99" vaporized=""/>
    <tripinfo id="C1_1.3" depart="288.55" departLane="440471861#0_1" departPos="5.10" departPosLat="0.00" departSpeed="28.66" departDelay="0.00" arrival="379.05" arrivalLane="-793339796#2_2" arrivalPos="83.13" arrivalPosLat="0.00" arrivalSpeed="28.61" duration="90.50" routeLength="1654.03" waitingTime="12.85" waitingCount="1" stopTime="0.00" timeLoss="31.69" rerouteNo="1" devices="tripinfo_C1_1.3 routing_C1_1.3" vType="car" speedFactor="1.03" vaporized=""/>
    <personinfo id="pf_2.8" depart="288.00" type="ped" speedFactor="1.06" duration="92.30" waitingTime="69.50" timeLoss="71.79" traveltime="92.30">
        <walk depart="288.00" departPos="15.72" arrival="380.30" arrivalPos="4.00" duration="92.30" routeLength="30.33" timeLoss="71.79" maxSpeed="1.48" waitingTime="69.50"/>
    </personinfo>
    <personinfo id="pf_1.0" depart="0.00" type="ped" speedFactor="1.06" duration="380.40" waitingTime="133.15" timeLoss="157.49" traveltime="380.40">
        <walk depart="0.00" departPos="25.00" arrival="380.40" arrivalPos="4.00" duration="380.40" routeLength="328.17" timeLoss="157.49" maxSpeed="1.47" waitingTime="133.15"/>
    </personinfo>
    <personinfo id="pf_1.2" depart="72.00" type="ped" speedFactor="1.01" duration="309.15" waitingTime="49.10" timeLoss="75.30" traveltime="309.15">
        <walk depart="72.00" departPos="25.00" arrival="381.15" arrivalPos="4.00" duration="309.15" routeLength="328.17" timeLoss="75.30" maxSpeed="1.40" waitingTime="49.10"/>
    </personinfo>
    <personinfo id="pf_1.1" depart="36.00" type="ped" speedFactor="0.94" duration="346.45" waitingTime="66.35" timeLoss="94.63" traveltime="346.45">
        <walk depart="36.00" departPos="25.00" arrival="382.45" arrivalPos="4.00" duration="346.45" routeLength="328.17" timeLoss="94.63" maxSpeed="1.30" waitingTime="66.35"/>
    </personinfo>
    <personinfo id="pf_2.9" depart="324.00" type="ped" speedFactor="0.96" duration="58.70" waitingTime="33.50" timeLoss="35.94" traveltime="58.70">
        <walk depart="324.00" departPos="15.72" arrival="382.70" arrivalPos="4.00" duration="58.70" routeLength="30.33" timeLoss="35.94" maxSpeed="1.33" waitingTime="33.50"/>
    </personinfo>
    <personinfo id="pf_2.10" depart="360.00" type="ped" speedFactor="0.93" duration="26.15" waitingTime="0.00" timeLoss="2.61" traveltime="26.15">
        <walk depart="360.00" departPos="15.72" arrival="386.15" arrivalPos="4.00" duration="26.15" routeLength="30.33" timeLoss="2.61" maxSpeed="1.29" waitingTime="0.00"/>
    </personinfo>
    <tripinfo id="B3_1.0" depart="241.30" departLane="-361257727#0_1" departPos="5.10" departPosLat="0.00" departSpeed="9.73" departDelay="0.00" arrival="388.40" arrivalLane="-140483224#1_1" arrivalPos="64.17" arrivalPosLat="0.00" arrivalSpeed="32.37" duration="147.10" routeLength="1427.09" waitingTime="33.30" waitingCount="1" stopTime="0.00" timeLoss="44.99" rerouteNo="1" devices="tripinfo_B3_1.0 routing_B3_1.0" vType="car" speedFactor="1.17" vaporized=""/>
    <tripinfo id="C2_1.2" depart="289.65" departLane="440471861#0_2" departPos="2.30" departPosLat="0.00" departSpeed="28.22" departDelay="0.00" arrival="392.45" arrivalLane="-145894807#0_1" arrivalPos="260.97" arrivalPosLat="0.00" arrivalSpeed="8.44" duration="102.80" routeLength="1102.71" waitingTime="13.10" waitingCount="1" stopTime="0.00" timeLoss="16.74" rerouteNo="1" devices="tripinfo_C2_1.2 routing_C2_1.2" vType="motorcycle" speedFactor="1.02" vaporized=""/>
    <tripinfo id="D3_1.3" depart="338.40" departLane="140483224#1_2" departPos="5.10" departPosLat="0.00" departSpeed="28.13" departDelay="0.00" arrival="414.65" arrivalLane="-440471861#0_2" arrivalPos="31.49" arrivalPosLat="0.00" arrivalSpeed="28.09" duration="76.25" routeLength="1069.09" waitingTime="28.05" waitingCount="1" stopTime="0.00" timeLoss="36.81" rerouteNo="1" devices="tripinfo_D3_1.3 routing_D3_1.3" vType="car" speedFactor="1.01" vaporized=""/>
    <tripinfo id="D2_1.0" depart="290.30" departLane="140483224#1_1" departPos="5.10" departPosLat="0.00" departSpeed="24.33" departDelay="0.00" arrival="414.80" arrivalLane="-145894807#0_1" arrivalPos="260.97" arrivalPosLat="0.00" arrivalSpeed="7.25" duration="124.50" routeLength="1109.85" waitingTime="18.20" waitingCount="1" stopTime="0.00" timeLoss="24.81" rerouteNo="1" devices="tripinfo_D2_1.0 routing_D2_1.0" vType="car" speedFactor="0.88" vaporized=""/>
    <tripinfo id="A1_1.1" depart="322.60" departLane="-793339796#2_1" departPos="2.30" departPosLat="0.00" departSpeed="28.23" departDelay="0.00" arrival="416.35" arrivalLane="-145894807#0_1" arrivalPos="260.97" arrivalPosLat="0.00" arrivalSpeed="8.36" duration="93.75" routeLength="1060.25" waitingTime="0.00" waitingCount="0" stopTime="0.00" timeLoss="5.59" rerouteNo="1" devices="tripinfo_A1_1.1 routing_A1_1.1" vType="motorcycle" speedFactor="1.02" vaporized=""/>
    <tripinfo id="A1_1.2" depart="329.65" departLane="-793339796#2_1" departPos="8.10" departPosLat="0.00" departSpeed="27.78" departDelay="0.00" arrival="423.85" arrivalLane="-145894807#0_1" arrivalPos="260.97" arrivalPosLat="0.00" arrivalSpeed="8.32" duration="94.20" routeLength="1054.45" waitingTime="0.00" waitingCount="0" stopTime="0.00" timeLoss="4.77" rerouteNo="1" devices="tripinfo_A1_1.2 routing_A1_1.2" vType="jeep" speedFactor="1.00" vaporized=""/>
    <personinfo id="pf_3.2" depart="72.00" type="ped" speedFactor="1.03" duration="370.05" waitingTime="3.25" timeLoss="39.53" traveltime="370.05">
        <walk depart="72.00" departPos="25.00" arrival="179.70" arrivalPos="18.88" duration="107.70" routeLength="135.02" timeLoss="13.78" maxSpeed="1.44" waitingTime="3.25"/>
        <walk depart="179.70" departPos="18.88" arrival="442.05" arrivalPos="22.75" duration="262.35" routeLength="340.11" timeLoss="25.75" maxSpeed="1.44" waitingTime="0.00"/>
    </personinfo>
    <tripinfo id="C1_1.4" depart="324.05" departLane="440471861#0_1" departPos="5.10" departPosLat="0.00" departSpeed="24.70" departDelay="0.00" arrival="443.15" arrivalLane="-793339796#2_2" arrivalPos="83.13" arrivalPosLat="0.00" arrivalSpeed="24.68" duration="119.10" routeLength="1654.03" waitingTime="28.60" waitingCount="2" stopTime="0.00" timeLoss="50.93" rerouteNo="1" devices="tripinfo_C1_1.4 routing_C1_1.4" vType="car" speedFactor="0.89" vaporized=""/>
    <tripinfo id="A1_1.3" depart="342.40" departLane="-793339796#2_1" departPos="5.10" departPosLat="0.00" departSpeed="24.66" departDelay="0.00" arrival="446.50" arrivalLane="-145894807#0_1" arrivalPos="260.97" arrivalPosLat="0.00" arrivalSpeed="7.35" duration="104.10" routeLength="1057.45" waitingTime="0.00" waitingCount="0" stopTime="0.00" timeLoss="3.25" rerouteNo="1" devices="tripinfo_A1_1.3 routing_A1_1.3" vType="car" speedFactor="0.89" vaporized=""/>
    <tripinfo id="D1_1.6" depart="370.50" departLane="140483224#1_1" departPos="5.10" departPosLat="0.00" departSpeed="22.10" departDelay="0.00" arrival="459.10" arrivalLane="-793339796#2_2" arrivalPos="83.13" arrivalPosLat="0.00" arrivalSpeed="22.05" duration="88.60" routeLength="1648.45" waitingTime="0.00" waitingCount="0" stopTime="0.00" timeLoss="10.99" rerouteNo="1" devices="tripinfo_D1_1.6 routing_D1_1.6" vType="car" speedFactor="0.80" vaporized=""/>
    <tripinfo id="A1_1.4" depart="383.20" departLane="-793339796#2_1" departPos="5.10" departPosLat="0.00" departSpeed="32.18" departDelay="0.00" arrival="464.65" arrivalLane="-145894807#0_1" arrivalPos="260.97" arrivalPosLat="0.00" arrivalSpeed="9.62" duration="81.45" routeLength="1057.45" waitingTime="0.00" waitingCount="0" stopTime="0.00" timeLoss="4.17" rerouteNo="1" devices="tripinfo_A1_1.4 routing_A1_1.4" vType="car" speedFactor="1.16" vaporized=""/>
    <tripinfo id="D3_1.4" depart="358.75" departLane="140483224#1_1" departPos="7.20" departPosLat="0.00" departSpeed="25.92" departDelay="0.00" arrival="472.85" arrivalLane="-440471861#0_2" arrivalPos="31.49" arrivalPosLat="0.00" arrivalSpeed="25.91" duration="114.10" routeLength="1066.99" waitingTime="50.50" waitingCount="2" stopTime="0.00" timeLoss="71.41" rerouteNo="1" devices="tripinfo_D3_1.4 routing_D3_1.4" vType="truck" speedFactor="0.93" vaporized=""/>
    <tripinfo id="D3_1.5" depart="380.35" departLane="140483224#1_2" departPos="5.10" departPosLat="0.00" departSpeed="31.25" departDelay="0.00" arrival="474.15" arrivalLane="-440471861#0_2" arrivalPos="31.49" arrivalPosLat="-0.00" arrivalSpeed="28.13" duration="93.80" routeLength="1069.09" waitingTime="38.05" waitingCount="1" stopTime="0.00" timeLoss="58.29" rerouteNo="1" devices="tripinfo_D3_1.5 routing_D3_1.5" vType="car" speedFactor="1.12" vaporized=""/>
    <tripinfo id="A3_1.5" depart="419.80" departLane="-793339796#2_2" departPos="5.10" departPosLat="0.00" departSpeed="27.72" departDelay="0.00" arrival="475.70" arrivalLane="-140483224#1_2" arrivalPos="64.17" arrivalPosLat="0.00" arrivalSpeed="27.70" duration="55.90" routeLength="1081.71" waitingTime="6.75" waitingCount="1" stopTime="0.00" timeLoss="15.40" rerouteNo="1" devices="tripinfo_A3_1.5 routing_A3_1.5" vType="car" speedFactor="1.00" vaporized=""/>
    <tripinfo id="C2_1.3" depart="379.20" departLane="440471861#0_2" departPos="5.10" departPosLat="0.00" departSpeed="27.74" departDelay="0.00" arrival="501.15" arrivalLane="-145894807#0_1" arrivalPos="260.97" arrivalPosLat="0.00" arrivalSpeed="8.32" duration="121.95" routeLength="1099.91" waitingTime="27.65" waitingCount="1" stopTime="0.00" timeLoss="34.52" rerouteNo="1" devices="tripinfo_C2_1.3 routing_C2_1.3" vType="car" speedFactor="1.00" vaporized=""/>
    <tripinfo id="A1_1.5" depart="411.25" departLane="-793339796#2_1" departPos="7.20" departPosLat="0.00" departSpeed="25.92" departDelay="0.00" arrival="511.45" arrivalLane="-145894807#0_1" arrivalPos="260.97" arrivalPosLat="0.00" arrivalSpeed="7.77" duration="100.20" routeLength="1055.35" waitingTime="0.00" waitingCount="0" stopTime="0.00" timeLoss="4.32" rerouteNo="1" devices="tripinfo_A1_1.5 routing_A1_1.5" vType="truck" speedFactor="0.93" vaporized=""/>
    <tripinfo id="B1_1.1" depart="381.65" departLane="-361257727#0_1" departPos="5.10" departPosLat="0.00" departSpeed="10.11" departDelay="0.00" arrival="511.90" arrivalLane="-793339796#2_2" arrivalPos="83.13" arrivalPosLat="0.00" arrivalSpeed="33.70" duration="130.25" routeLength="1915.62" waitingTime="0.00" waitingCount="0" stopTime="0.00" timeLoss="19.20" rerouteNo="1" devices="tripinfo_B1_1.1 routing_B1_1.1" vType="car" speedFactor="1.21" vaporized=""/>