<?xml version="1.0" encoding="UTF-8"?>

<!-- generated on 2025-11-13 13:52:17 by Eclipse SUMO sumo Version 1.24.0
<sumoConfiguration xmlns:xsi="http://www.w3.org/2001/XMLSchema-instance" xsi:noNamespaceSchemaLocation="http://sumo.dlr.de/xsd/sumoConfiguration.xsd">

    <input>
        <net-file value="Olivarez_traci\network/baseline.net.xml"/>
        <route-files value="Olivarez_traci\demand/demand.rou.xml"/>
        <additional-files value="Olivarez_traci\additionals/map.poly.xml,Olivarez_traci\ additionals/detectors.add.xml"/>
    </input>

    <output>
        <tripinfo-output value="Olivarez_traci\output_DQN\SD_DQN_trips.xml"/>
        <statistic-output value="Olivarez_traci\output_DQN\SD_DQN_stats.xml"/>
    </output>

    <time>
        <begin value="0"/>
        <end value="10800"/>
        <step-length value="0.05"/>
    </time>

    <processing>
        <lateral-resolution value="0.1"/>
        <collision.action value="none"/>
        <collision.check-junctions value="false"/>
        <collision.mingap-factor value="0"/>
    </processing>

    <report>
        <no-warnings value="true"/>
    </report>

    <traci_server>
        <remote-port value="50669"/>
    </traci_server>

    <gui_only>
        <delay value="0"/>
    </gui_only>

</sumoConfiguration>
-->

<tripinfos xmlns:xsi="http://www.w3.org/2001/XMLSchema-instance" xsi:noNamespaceSchemaLocation="http://sumo.dlr.de/xsd/tripinfo_file.xsd">
    <tripinfo id="D3_1.0" depart="7.65" departLane="140483224#1_2" departPos="5.10" departPosLat="0.00" departSpeed="29.23" departDelay="0.00" arrival="50.40" arrivalLane="-440471861#0_2" arrivalPos="31.49" arrivalPosLat="0.00" arrivalSpeed="29.22" duration="42.75" routeLength="1069.11" waitingTime="0.00" waitingCount="0" stopTime="0.00" timeLoss="4.78" rerouteNo="1" devices="tripinfo_D3_1.0 routing_D3_1.0" vType="car" speedFactor="1.05" vaporized=""/>
    <tripinfo id="A2_1.0" depart="4.45" departLane="-793339796#2_1" departPos="5.10" departPosLat="0.00" departSpeed="26.72" departDelay="0.00" arrival="62.20" arrivalLane="-440471861#0_1" arrivalPos="31.49" arrivalPosLat="0.00" arrivalSpeed="26.68" duration="57.75" routeLength="1081.89" waitingTime="7.60" waitingCount="1" stopTime="0.00" timeLoss="17.23" rerouteNo="1" devices="tripinfo_A2_1.0 routing_A2_1.0" vType="car" speedFactor="0.96" vaporized=""/>
    <tripinfo id="D1_1.0" depart="0.60" departLane="140483224#1_1" departPos="8.10" departPosLat="0.00" departSpeed="31.73" departDelay="0.00" arrival="69.35" arrivalLane="-793339796#2_2" arrivalPos="83.13" arrivalPosLat="0.00" arrivalSpeed="31.68" duration="68.75" routeLength="1645.47" waitingTime="0.00" waitingCount="0" stopTime="0.00" timeLoss="14.84" rerouteNo="1" devices="tripinfo_D1_1.0 routing_D1_1.0" vType="jeep" speedFactor="1.14" vaporized=""/>
    <personinfo id="pf_1.0" depart="0.00" type="ped" speedFactor="1.06" duration="113.95" waitingTime="0.00" timeLoss="11.09" traveltime="113.95">
        <walk depart="0.00" departPos="25.00" arrival="113.95" arrivalPos="7.46" duration="113.95" routeLength="151.44" timeLoss="11.09" maxSpeed="1.47" waitingTime="0.00"/>
    </personinfo>
    <tripinfo id="B2_1.0" depart="31.00" departLane="-361257727#0_1" departPos="5.10" departPosLat="0.00" departSpeed="9.74" departDelay="0.00" arrival="139.15" arrivalLane="-440471861#0_1" arrivalPos="31.49" arrivalPosLat="0.00" arrivalSpeed="32.44" duration="108.15" routeLength="1414.29" waitingTime="0.00" waitingCount="0" stopTime="0.00" timeLoss="6.39" rerouteNo="1" devices="tripinfo_B2_1.0 routing_B2_1.0" vType="car" speedFactor="1.17" vaporized=""/>
    <tripinfo id="C3_1.0" depart="43.55" departLane="440471861#0_1" departPos="2.30" departPosLat="0.00" departSpeed="28.16" departDelay="0.00" arrival="164.50" arrivalLane="-140483224#1_1" arrivalPos="64.17" arrivalPosLat="-0.00" arrivalSpeed="28.13" duration="120.95" routeLength="1056.75" waitingTime="67.05" waitingCount="1" stopTime="0.00" timeLoss="82.32" rerouteNo="1" devices="tripinfo_C3_1.0 routing_C3_1.0" vType="tricycle" speedFactor="1.01" vaporized=""/>
    <personinfo id="pf_1.1" depart="36.00" type="ped" speedFactor="0.94" duration="129.25" waitingTime="0.00" timeLoss="13.04" traveltime="129.25">
        <walk depart="36.00" departPos="25.00" arrival="165.25" arrivalPos="7.46" duration="129.25" routeLength="151.44" timeLoss="13.04" maxSpeed="1.30" waitingTime="0.00"/>
    </personinfo>
    <tripinfo id="C3_1.1" depart="78.25" departLane="440471861#0_1" departPos="8.10" departPosLat="0.00" departSpeed="29.57" departDelay="0.00" arrival="167.10" arrivalLane="-140483224#1_1" arrivalPos="64.17" arrivalPosLat="-0.00" arrivalSpeed="29.52" duration="88.85" routeLength="1050.95" waitingTime="32.85" waitingCount="1" stopTime="0.00" timeLoss="52.20" rerouteNo="1" devices="tripinfo_C3_1.1 routing_C3_1.1" vType="jeep" speedFactor="1.06" vaporized=""/>
    <tripinfo id="A1_1.0" depart="78.95" departLane="-793339796#2_1" departPos="7.20" departPosLat="0.00" departSpeed="29.06" departDelay="0.00" arrival="169.75" arrivalLane="-145894807#0_1" arrivalPos="260.97" arrivalPosLat="0.00" arrivalSpeed="8.71" duration="90.80" routeLength="1055.35" waitingTime="0.00" waitingCount="0" stopTime="0.00" timeLoss="5.26" rerouteNo="1" devices="tripinfo_A1_1.0 routing_A1_1.0" vType="truck" speedFactor="1.05" vaporized=""/>
    <tripinfo id="C1_1.0" depart="31.85" departLane="440471861#0_1" departPos="2.30" departPosLat="0.00" departSpeed="30.61" departDelay="0.00" arrival="180.25" arrivalLane="-793339796#2_2" arrivalPos="83.13" arrivalPosLat="0.00" arrivalSpeed="30.49" duration="148.40" routeLength="1656.83" waitingTime="84.20" waitingCount="1" stopTime="0.00" timeLoss="93.28" rerouteNo="1" devices="tripinfo_C1_1.0 routing_C1_1.0" vType="motorcycle" speedFactor="1.10" vaporized=""/>
    <tripinfo id="D3_1.1" depart="100.85" departLane="140483224#1_2" departPos="8.10" departPosLat="0.00" departSpeed="30.83" departDelay="0.00" arrival="180.60" arrivalLane="-440471861#0_2" arrivalPos="31.49" arrivalPosLat="0.00" arrivalSpeed="30.81" duration="79.75" routeLength="1066.11" waitingTime="34.05" waitingCount="1" stopTime="0.00" timeLoss="43.84" rerouteNo="1" devices="tripinfo_D3_1.1 routing_D3_1.1" vType="jeep" speedFactor="1.11" vaporized=""/>
    <personinfo id="pf_1.2" depart="72.00" type="ped" speedFactor="1.01" duration="119.75" waitingTime="0.00" timeLoss="11.84" traveltime="119.75">
        <walk depart="72.00" departPos="25.00" arrival="191.75" arrivalPos="7.46" duration="119.75" routeLength="151.44" timeLoss="11.84" maxSpeed="1.40" waitingTime="0.00"/>
    </personinfo>
    <tripinfo id="C1_1.1" depart="41.05" departLane="440471861#0_1" departPos="5.10" departPosLat="0.00" departSpeed="26.92" departDelay="0.00" arrival="199.70" arrivalLane="-793339796#2_2" arrivalPos="83.13" arrivalPosLat="0.00" arrivalSpeed="26.92" duration="158.65" routeLength="1654.03" waitingTime="76.55" waitingCount="2" stopTime="0.00" timeLoss="96.05" rerouteNo="1" devices="tripinfo_C1_1.1 routing_C1_1.1" vType="car" speedFactor="0.97" vaporized=""/>
    <tripinfo id="B1_1.0" depart="37.80" departLane="-361257727#0_1" departPos="5.10" departPosLat="0.00" departSpeed="8.02" departDelay="0.00" arrival="202.55" arrivalLane="-793339796#2_2" arrivalPos="83.13" arrivalPosLat="0.00" arrivalSpeed="26.71" duration="164.75" routeLength="1915.62" waitingTime="3.25" waitingCount="1" stopTime="0.00" timeLoss="24.91" rerouteNo="1" devices="tripinfo_B1_1.0 routing_B1_1.0" vType="car" speedFactor="0.96" vaporized=""/>
    <tripinfo id="C2_1.0" depart="20.15" departLane="440471861#0_2" departPos="5.10" departPosLat="0.00" departSpeed="28.79" departDelay="0.00" arrival="205.30" arrivalLane="-145894807#0_1" arrivalPos="260.97" arrivalPosLat="0.00" arrivalSpeed="8.59" duration="185.15" routeLength="1099.91" waitingTime="93.90" waitingCount="1" stopTime="0.00" timeLoss="100.89" rerouteNo="1" devices="tripinfo_C2_1.0 routing_C2_1.0" vType="car" speedFactor="1.04" vaporized=""/>
    <tripinfo id="D1_1.1" depart="46.15" departLane="140483224#1_1" departPos="2.30" departPosLat="0.00" departSpeed="29.74" departDelay="0.00" arrival="212.30" arrivalLane="-793339796#2_2" arrivalPos="83.13" arrivalPosLat="0.00" arrivalSpeed="29.70" duration="166.15" routeLength="1651.27" waitingTime="89.90" waitingCount="1" stopTime="0.00" timeLoss="108.41" rerouteNo="1" devices="tripinfo_D1_1.1 routing_D1_1.1" vType="tricycle" speedFactor="1.07" vaporized=""/>
    <tripinfo id="D1_1.2" depart="58.55" departLane="140483224#1_1" departPos="2.30" departPosLat="0.00" departSpeed="27.78" departDelay="0.00" arrival="216.55" arrivalLane="-793339796#2_2" arrivalPos="83.13" arrivalPosLat="0.00" arrivalSpeed="27.75" duration="158.00" routeLength="1651.27" waitingTime="76.80" waitingCount="1" stopTime="0.00" timeLoss="96.19" rerouteNo="1" devices="tripinfo_D1_1.2 routing_D1_1.2" vType="tricycle" speedFactor="1.00" vaporized=""/>
    <tripinfo id="D1_1.3" depart="118.00" departLane="140483224#1_1" departPos="2.30" departPosLat="0.00" departSpeed="28.91" departDelay="0.00" arrival="218.95" arrivalLane="-793339796#2_2" arrivalPos="83.13" arrivalPosLat="0.00" arrivalSpeed="28.89" duration="100.95" routeLength="1651.27" waitingTime="14.25" waitingCount="1" stopTime="0.00" timeLoss="41.56" rerouteNo="1" devices="tripinfo_D1_1.3 routing_D1_1.3" vType="tricycle" speedFactor="1.04" vaporized=""/>
    <personinfo id="pf_1.3" depart="108.00" type="ped" speedFactor="1.08" duration="111.70" waitingTime="0.00" timeLoss="10.99" traveltime="111.70">
        <walk depart="108.00" departPos="25.00" arrival="219.70" arrivalPos="7.46" duration="111.70" routeLength="151.44" timeLoss="10.99" maxSpeed="1.50" waitingTime="0.00"/>
    </personinfo>
    <tripinfo id="A1_1.1" depart="125.65" departLane="-793339796#2_1" departPos="2.30" departPosLat="0.00" departSpeed="27.06" departDelay="0.00" arrival="219.75" arrivalLane="-145894807#0_1" arrivalPos="260.97" arrivalPosLat="0.00" arrivalSpeed="8.00" duration="94.10" routeLength="1060.25" waitingTime="0.00" waitingCount="0" stopTime="0.00" timeLoss="2.05" rerouteNo="1" devices="tripinfo_A1_1.1 routing_A1_1.1" vType="motorcycle" speedFactor="0.97" vaporized=""/>
    <tripinfo id="A1_1.2" depart="154.60" departLane="-793339796#2_1" departPos="2.30" departPosLat="0.00" departSpeed="31.66" departDelay="0.00" arrival="235.35" arrivalLane="-145894807#0_1" arrivalPos="260.97" arrivalPosLat="0.00" arrivalSpeed="9.48" duration="80.75" routeLength="1060.25" waitingTime="0.00" waitingCount="0" stopTime="0.00" timeLoss="2.07" rerouteNo="1" devices="tripinfo_A1_1.2 routing_A1_1.2" vType="motorcycle" speedFactor="1.14" vaporized=""/>
    <tripinfo id="A3_1.1" depart="148.50" departLane="-793339796#2_1" departPos="2.30" departPosLat="0.00" departSpeed="32.00" departDelay="0.00" arrival="236.55" arrivalLane="-140483224#1_2" arrivalPos="64.17" arrivalPosLat="0.00" arrivalSpeed="31.97" duration="88.05" routeLength="1084.53" waitingTime="46.00" waitingCount="1" stopTime="0.00" timeLoss="52.86" rerouteNo="1" devices="tripinfo_A3_1.1 routing_A3_1.1" vType="motorcycle" speedFactor="1.15" vaporized=""/>
    <tripinfo id="A3_1.0" depart="107.30" departLane="-793339796#2_1" departPos="2.30" departPosLat="0.00" departSpeed="23.62" departDelay="0.00" arrival="242.45" arrivalLane="-140483224#1_2" arrivalPos="64.17" arrivalPosLat="0.00" arrivalSpeed="23.50" duration="135.15" routeLength="1084.53" waitingTime="84.20" waitingCount="1" stopTime="0.00" timeLoss="87.50" rerouteNo="1" devices="tripinfo_A3_1.0 routing_A3_1.0" vType="motorcycle" speedFactor="0.85" vaporized=""/>
    <tripinfo id="D1_1.4" depart="178.90" departLane="140483224#1_1" departPos="5.10" departPosLat="0.00" departSpeed="31.36" departDelay="0.00" arrival="248.15" arrivalLane="-793339796#2_2" arrivalPos="83.13" arrivalPosLat="0.00" arrivalSpeed="31.30" duration="69.25" routeLength="1648.47" waitingTime="0.00" waitingCount="0" stopTime="0.00" timeLoss="14.61" rerouteNo="1" devices="tripinfo_D1_1.4 routing_D1_1.4" vType="car" speedFactor="1.13" vaporized=""/>
