<?xml version="1.0" encoding="UTF-8"?>

<!-- generated on 2025-11-26 15:23:19 by Eclipse SUMO GUI Version 1.24.0
<sumoConfiguration xmlns:xsi="http://www.w3.org/2001/XMLSchema-instance" xsi:noNamespaceSchemaLocation="http://sumo.dlr.de/xsd/sumoConfiguration.xsd">

    <input>
        <net-file value="Olivarez_traci\network/map.net.xml"/>
        <route-files value="Olivarez_traci\demand/flows_normal_traffic.rou.xml"/>
        <additional-files value="Olivarez_traci\additionals/map.poly.xml,Olivarez_traci\ additionals/detectors.add.xml"/>
    </input>

    <output>
        <tripinfo-output value="Olivarez_traci\output_DQN\SD_DQN_trips.xml"/>
        <statistic-output value="Olivarez_traci\output_DQN\SD_DQN_stats.xml"/>
    </output>

    <time>
        <begin value="0"/>
        <end value="10800"/>
        <step-length value="0.05"/>
    </time>

    <processing>
        <lateral-resolution value="0.1"/>
        <collision.action value="none"/>
        <collision.check-junctions value="false"/>
        <collision.mingap-factor value="0"/>
    </processing>

    <report>
        <no-warnings value="true"/>
    </report>

    <traci_server>
        <remote-port value="50204"/>
    </traci_server>

    <gui_only>
        <delay value="0"/>
    </gui_only>

</sumoConfiguration>
-->

<tripinfos xmlns:xsi="http://www.w3.org/2001/XMLSchema-instance" xsi:noNamespaceSchemaLocation="http://sumo.dlr.de/xsd/tripinfo_file.xsd">
    <personinfo id="pf_2.0" depart="0.00" type="ped" speedFactor="1.06" duration="49.90" waitingTime="27.00" timeLoss="29.39" traveltime="49.90">
        <walk depart="0.00" departPos="15.72" arrival="49.90" arrivalPos="4.00" duration="49.90" routeLength="30.33" timeLoss="29.39" maxSpeed="1.48" waitingTime="27.00"/>
    </personinfo>
    <tripinfo id="D3_1.0" depart="7.65" departLane="140483224#1_1" departPos="12.10" departPosLat="0.00" departSpeed="27.78" departDelay="0.00" arrival="55.80" arrivalLane="-440471861#0_2" arrivalPos="31.49" arrivalPosLat="0.00" arrivalSpeed="27.76" duration="48.15" routeLength="1062.09" waitingTime="0.00" waitingCount="0" stopTime="0.00" timeLoss="8.50" rerouteNo="1" devices="tripinfo_D3_1.0 routing_D3_1.0" vType="bus" speedFactor="1.00" vaporized=""/>
    <personinfo id="pf_2.1" depart="36.00" type="ped" speedFactor="0.96" duration="25.30" waitingTime="0.00" timeLoss="2.47" traveltime="25.30">
        <walk depart="36.00" departPos="15.72" arrival="61.30" arrivalPos="4.00" duration="25.30" routeLength="30.33" timeLoss="2.47" maxSpeed="1.33" waitingTime="0.00"/>
    </personinfo>
    <tripinfo id="A2_1.0" depart="4.45" departLane="-793339796#2_1" departPos="5.10" departPosLat="0.00" departSpeed="23.90" departDelay="0.00" arrival="63.90" arrivalLane="-440471861#0_1" arrivalPos="31.49" arrivalPosLat="0.00" arrivalSpeed="23.87" duration="59.45" routeLength="1081.89" waitingTime="5.55" waitingCount="1" stopTime="0.00" timeLoss="14.17" rerouteNo="1" devices="tripinfo_A2_1.0 routing_A2_1.0" vType="car" speedFactor="0.86" vaporized=""/>
    <tripinfo id="D1_1.0" depart="0.60" departLane="140483224#1_1" departPos="5.10" departPosLat="0.00" departSpeed="27.72" departDelay="0.00" arrival="75.45" arrivalLane="-793339796#2_2" arrivalPos="83.13" arrivalPosLat="0.00" arrivalSpeed="27.69" duration="74.85" routeLength="1648.45" waitingTime="0.00" waitingCount="0" stopTime="0.00" timeLoss="13.05" rerouteNo="1" devices="tripinfo_D1_1.0 routing_D1_1.0" vType="car" speedFactor="1.00" vaporized=""/>
    <tripinfo id="C3_1.0" depart="43.55" departLane="440471861#0_1" departPos="5.10" departPosLat="0.00" departSpeed="31.25" departDelay="0.00" arrival="89.70" arrivalLane="-140483224#1_1" arrivalPos="64.17" arrivalPosLat="-0.00" arrivalSpeed="37.95" duration="46.15" routeLength="1053.93" waitingTime="0.00" waitingCount="0" stopTime="0.00" timeLoss="17.59" rerouteNo="1" devices="tripinfo_C3_1.0 routing_C3_1.0" vType="car" speedFactor="1.37" vaporized=""/>
    <tripinfo id="C1_1.0" depart="31.85" departLane="440471861#0_1" departPos="2.30" departPosLat="0.00" departSpeed="30.91" departDelay="0.00" arrival="110.10" arrivalLane="-793339796#2_2" arrivalPos="83.13" arrivalPosLat="0.00" arrivalSpeed="30.80" duration="78.25" routeLength="1656.83" waitingTime="14.35" waitingCount="1" stopTime="0.00" timeLoss="23.61" rerouteNo="1" devices="tripinfo_C1_1.0 routing_C1_1.0" vType="motorcycle" speedFactor="1.11" vaporized=""/>
    <tripinfo id="C1_1.1" depart="41.05" departLane="440471861#0_1" departPos="5.10" departPosLat="0.00" departSpeed="26.89" departDelay="0.00" arrival="122.90" arrivalLane="-793339796#2_2" arrivalPos="83.13" arrivalPosLat="0.00" arrivalSpeed="26.86" duration="81.85" routeLength="1654.03" waitingTime="1.35" waitingCount="1" stopTime="0.00" timeLoss="19.20" rerouteNo="1" devices="tripinfo_C1_1.1 routing_C1_1.1" vType="car" speedFactor="0.97" vaporized=""/>
    <tripinfo id="C2_1.0" depart="20.15" departLane="440471861#0_2" departPos="5.10" departPosLat="0.00" departSpeed="27.59" departDelay="0.00" arrival="138.15" arrivalLane="-145894807#0_1" arrivalPos="260.97" arrivalPosLat="0.00" arrivalSpeed="8.24" duration="118.00" routeLength="1099.91" waitingTime="23.25" waitingCount="1" stopTime="0.00" timeLoss="30.06" rerouteNo="1" devices="tripinfo_C2_1.0 routing_C2_1.0" vType="car" speedFactor="0.99" vaporized=""/>
    <tripinfo id="C3_1.1" depart="78.25" departLane="440471861#0_1" departPos="5.10" departPosLat="0.00" departSpeed="28.72" departDelay="0.00" arrival="141.55" arrivalLane="-140483224#1_1" arrivalPos="64.17" arrivalPosLat="-0.00" arrivalSpeed="28.68" duration="63.30" routeLength="1053.93" waitingTime="16.25" waitingCount="1" stopTime="0.00" timeLoss="25.47" rerouteNo="1" devices="tripinfo_C3_1.1 routing_C3_1.1" vType="car" speedFactor="1.03" vaporized=""/>
    <tripinfo id="D1_1.1" depart="46.15" departLane="140483224#1_1" departPos="7.20" departPosLat="0.00" departSpeed="28.76" departDelay="0.00" arrival="143.55" arrivalLane="-793339796#2_2" arrivalPos="83.13" arrivalPosLat="0.00" arrivalSpeed="25.36" duration="97.40" routeLength="1646.35" waitingTime="7.40" waitingCount="1" stopTime="0.00" timeLoss="37.88" rerouteNo="1" devices="tripinfo_D1_1.1 routing_D1_1.1" vType="truck" speedFactor="1.04" vaporized=""/>
    <personinfo id="pf_2.2" depart="72.00" type="ped" speedFactor="0.97" duration="74.50" waitingTime="49.50" timeLoss="51.94" traveltime="74.50">
        <walk depart="72.00" departPos="15.72" arrival="146.50" arrivalPos="4.00" duration="74.50" routeLength="30.33" timeLoss="51.94" maxSpeed="1.34" waitingTime="49.50"/>
    </personinfo>
    <personinfo id="pf_2.3" depart="108.00" type="ped" speedFactor="0.95" duration="38.75" waitingTime="13.35" timeLoss="15.82" traveltime="38.75">
        <walk depart="108.00" departPos="15.72" arrival="146.75" arrivalPos="4.00" duration="38.75" routeLength="30.33" timeLoss="15.82" maxSpeed="1.32" waitingTime="13.35"/>
    </personinfo>
    <tripinfo id="D3_1.1" depart="100.85" departLane="140483224#1_2" departPos="5.10" departPosLat="0.00" departSpeed="24.05" departDelay="0.00" arrival="154.80" arrivalLane="-440471861#0_2" arrivalPos="31.49" arrivalPosLat="0.00" arrivalSpeed="24.01" duration="53.95" routeLength="1069.09" waitingTime="0.45" waitingCount="1" stopTime="0.00" timeLoss="7.83" rerouteNo="1" devices="tripinfo_D3_1.1 routing_D3_1.1" vType="car" speedFactor="0.87" vaporized=""/>
    <tripinfo id="A3_1.0" depart="107.30" departLane="-793339796#2_1" departPos="7.20" departPosLat="0.00" departSpeed="27.33" departDelay="0.00" arrival="170.25" arrivalLane="-140483224#1_2" arrivalPos="64.17" arrivalPosLat="0.00" arrivalSpeed="27.31" duration="62.95" routeLength="1079.61" waitingTime="5.85" waitingCount="1" stopTime="0.00" timeLoss="21.95" rerouteNo="1" devices="tripinfo_A3_1.0 routing_A3_1.0" vType="truck" speedFactor="0.98" vaporized=""/>
    <tripinfo id="B2_1.0" depart="64.60" departLane="-361257727#0_1" departPos="2.30" departPosLat="0.00" departSpeed="9.38" departDelay="0.00" arrival="176.80" arrivalLane="-440471861#0_1" arrivalPos="31.49" arrivalPosLat="0.00" arrivalSpeed="31.23" duration="112.20" routeLength="1417.09" waitingTime="1.60" waitingCount="1" stopTime="0.00" timeLoss="6.26" rerouteNo="1" devices="tripinfo_B2_1.0 routing_B2_1.0" vType="motorcycle" speedFactor="1.13" vaporized=""/>
    <tripinfo id="D1_1.2" depart="58.55" departLane="140483224#1_1" departPos="5.10" departPosLat="0.00" departSpeed="26.59" departDelay="0.00" arrival="210.80" arrivalLane="-793339796#2_2" arrivalPos="83.13" arrivalPosLat="0.00" arrivalSpeed="26.55" duration="152.25" routeLength="1648.45" waitingTime="64.65" waitingCount="2" stopTime="0.00" timeLoss="87.80" rerouteNo="1" devices="tripinfo_D1_1.2 routing_D1_1.2" vType="car" speedFactor="0.96" vaporized=""/>
    <tripinfo id="A3_1.1" depart="148.50" departLane="-793339796#2_2" departPos="5.10" departPosLat="0.00" departSpeed="27.95" departDelay="0.00" arrival="213.10" arrivalLane="-140483224#1_2" arrivalPos="64.17" arrivalPosLat="0.00" arrivalSpeed="27.94" duration="64.60" routeLength="1081.71" waitingTime="15.80" waitingCount="1" stopTime="0.00" timeLoss="24.43" rerouteNo="1" devices="tripinfo_A3_1.1 routing_A3_1.1" vType="car" speedFactor="1.01" vaporized=""/>
    <tripinfo id="B2_1.1" depart="75.15" departLane="-361257727#0_1" departPos="2.30" departPosLat="0.00" departSpeed="8.63" departDelay="0.00" arrival="228.70" arrivalLane="-440471861#0_1" arrivalPos="31.49" arrivalPosLat="0.00" arrivalSpeed="28.67" duration="153.55" routeLength="1417.09" waitingTime="33.90" waitingCount="1" stopTime="0.00" timeLoss="38.36" rerouteNo="1" devices="tripinfo_B2_1.1 routing_B2_1.1" vType="motorcycle" speedFactor="1.04" vaporized=""/>
    <tripinfo id="C3_1.2" depart="161.95" departLane="440471861#0_1" departPos="2.30" departPosLat="0.00" departSpeed="29.09" departDelay="0.00" arrival="238.95" arrivalLane="-140483224#1_1" arrivalPos="64.17" arrivalPosLat="-0.00" arrivalSpeed="28.96" duration="77.00" routeLength="1056.73" waitingTime="34.45" waitingCount="1" stopTime="0.00" timeLoss="39.60" rerouteNo="1" devices="tripinfo_C3_1.2 routing_C3_1.2" vType="motorcycle" speedFactor="1.05" vaporized=""/>
    <tripinfo id="D1_1.3" depart="118.00" departLane="140483224#1_1" departPos="8.10" departPosLat="0.00" departSpeed="27.78" departDelay="0.00" arrival="247.50" arrivalLane="-793339796#2_2" arrivalPos="83.13" arrivalPosLat="0.00" arrivalSpeed="24.36" duration="129.50" routeLength="1645.45" waitingTime="27.95" waitingCount="2" stopTime="0.00" timeLoss="67.90" rerouteNo="1" devices="tripinfo_D1_1.3 routing_D1_1.3" vType="jeep" speedFactor="1.00" vaporized=""/>
    <personinfo id="pf_2.5" depart="180.00" type="ped" speedFactor="1.07" duration="70.15" waitingTime="47.50" timeLoss="49.79" traveltime="70.15">
        <walk depart="180.00" departPos="15.72" arrival="250.15" arrivalPos="4.00" duration="70.15" routeLength="30.33" timeLoss="49.79" maxSpeed="1.49" waitingTime="47.50"/>
    </personinfo>
    <personinfo id="pf_2.6" depart="216.00" type="ped" speedFactor="1.01" duration="35.00" waitingTime="11.05" timeLoss="13.46" traveltime="35.00">
        <walk depart="216.00" departPos="15.72" arrival="251.00" arrivalPos="4.00" duration="35.00" routeLength="30.33" timeLoss="13.46" maxSpeed="1.41" waitingTime="11.05"/>
    </personinfo>
    <personinfo id="pf_2.4" depart="144.00" type="ped" speedFactor="0.89" duration="109.00" waitingTime="81.95" timeLoss="84.57" traveltime="109.00">
        <walk depart="144.00" departPos="15.72" arrival="253.00" arrivalPos="4.00" duration="109.00" routeLength="30.33" timeLoss="84.57" maxSpeed="1.24" waitingTime="81.95"/>
    </personinfo>
    <tripinfo id="D3_1.2" depart="208.30" departLane="140483224#1_2" departPos="5.10" departPosLat="0.00" departSpeed="27.62" departDelay="0.00" arrival="253.30" arrivalLane="-440471861#0_2" arrivalPos="31.49" arrivalPosLat="0.00" arrivalSpeed="27.57" duration="45.00" routeLength="1069.09" waitingTime="0.00" waitingCount="0" stopTime="0.00" timeLoss="4.80" rerouteNo="1" devices="tripinfo_D3_1.2 routing_D3_1.2" vType="car" speedFactor="0.99" vaporized=""/>
    <personinfo id="pf_2.7" depart="252.00" type="ped" speedFactor="1.03" duration="23.35" waitingTime="0.00" timeLoss="2.24" traveltime="23.35">
        <walk depart="252.00" departPos="15.72" arrival="275.35" arrivalPos="4.00" duration="23.35" routeLength="30.33" timeLoss="2.24" maxSpeed="1.44" waitingTime="0.00"/>
    </personinfo>
    <tripinfo id="C3_1.3" depart="180.75" departLane="440471861#0_1" departPos="8.10" departPosLat="0.00" departSpeed="27.78" departDelay="0.00" arrival="278.00" arrivalLane="-140483224#1_1" arrivalPos="64.17" arrivalPosLat="-0.00" arrivalSpeed="27.78" duration="97.25" routeLength="1050.93" waitingTime="27.00" waitingCount="2" stopTime="0.00" timeLoss="58.26" rerouteNo="1" devices="tripinfo_C3_1.3 routing_C3_1.3" vType="jeep" speedFactor="1.00" vaporized=""/>
    <tripinfo id="C2_1.1" depart="161.10" departLane="440471861#0_2" departPos="5.10" departPosLat="0.00" departSpeed="30.46" departDelay="0.00" arrival="283.45" arrivalLane="-145894807#0_1" arrivalPos="260.97" arrivalPosLat="0.00" arrivalSpeed="9.10" duration="122.35" routeLength="1099.91" waitingTime="35.25" waitingCount="1" stopTime="0.00" timeLoss="42.70" rerouteNo="1" devices="tripinfo_C2_1.1 routing_C2_1.1" vType="car" speedFactor="1.10" vaporized=""/>
    <tripinfo id="A1_1.0" depart="222.65" departLane="-793339796#2_1" departPos="5.10" departPosLat="0.00" departSpeed="29.12" departDelay="0.00" arrival="311.80" arrivalLane="-145894807#0_1" arrivalPos="260.97" arrivalPosLat="0.00" arrivalSpeed="8.70" duration="89.15" routeLength="1057.45" waitingTime="0.00" waitingCount="0" stopTime="0.00" timeLoss="3.75" rerouteNo="1" devices="tripinfo_A1_1.0 routing_A1_1.0" vType="car" speedFactor="1.05" vaporized=""/>
    <tripinfo id="A2_1.2" depart="261.45" departLane="-793339796#2_1" departPos="2.30" departPosLat="0.00" departSpeed="21.47" departDelay="0.00" arrival="320.30" arrivalLane="-440471861#0_1" arrivalPos="31.49" arrivalPosLat="0.00" arrivalSpeed="21.42" duration="58.85" routeLength="1084.69" waitingTime="2.15" waitingCount="1" stopTime="0.00" timeLoss="8.31" rerouteNo="1" devices="tripinfo_A2_1.2 routing_A2_1.2" vType="motorcycle" speedFactor="0.77" vaporized=""/>
    <tripinfo id="A2_1.1" depart="252.35" departLane="-793339796#2_1" departPos="5.10" departPosLat="0.00" departSpeed="24.00" departDelay="0.00" arrival="322.65" arrivalLane="-440471861#0_1" arrivalPos="31.49" arrivalPosLat="0.00" arrivalSpeed="23.97" duration="70.30" routeLength="1081.89" waitingTime="14.45" waitingCount="1" stopTime="0.00" timeLoss="25.19" rerouteNo="1" devices="tripinfo_A2_1.1 routing_A2_1.1" vType="car" speedFactor="0.86" vaporized=""/>
    <tripinfo id="A3_1.2" depart="227.15" departLane="-793339796#2_1" departPos="7.20" departPosLat="0.00" departSpeed="26.14" departDelay="0.00" arrival="326.45" arrivalLane="-140483224#1_2" arrivalPos="64.17" arrivalPosLat="0.00" arrivalSpeed="26.11" duration="99.30" routeLength="1079.61" waitingTime="33.25" waitingCount="2" stopTime="0.00" timeLoss="56.41" rerouteNo="1" devices="tripinfo_A3_1.2 routing_A3_1.2" vType="truck" speedFactor="0.94" vaporized=""/>
    <tripinfo id="A2_1.3" depart="265.25" departLane="-793339796#2_1" departPos="8.10" departPosLat="0.00" departSpeed="23.68" departDelay="0.00" arrival="327.30" arrivalLane="-440471861#0_1" arrivalPos="31.49" arrivalPosLat="0.00" arrivalSpeed="27.77" duration="62.05" routeLength="1078.89" waitingTime="0.00" waitingCount="0" stopTime="0.00" timeLoss="23.18" rerouteNo="1" devices="tripinfo_A2_1.3 routing_A2_1.3" vType="jeep" speedFactor="1.00" vaporized=""/>
    <tripinfo id="A3_1.3" depart="256.80" departLane="-793339796#2_1" departPos="7.20" departPosLat="0.00" departSpeed="26.77" departDelay="0.00" arrival="327.80" arrivalLane="-140483224#1_2" arrivalPos="64.17" arrivalPosLat="0.00" arrivalSpeed="26.77" duration="71.00" routeLength="1079.61" waitingTime="8.75" waitingCount="1" stopTime="0.00" timeLoss="29.12" rerouteNo="1" devices="tripinfo_A3_1.3 routing_A3_1.3" vType="truck" speedFactor="0.96" vaporized=""/>
    <tripinfo id="A3_1.4" depart="289.75" departLane="-793339796#2_1" departPos="7.20" departPosLat="0.00" departSpeed="28.00" departDelay="0.00" arrival="336.95" arrivalLane="-140483224#1_2" arrivalPos="64.17" arrivalPosLat="0.00" arrivalSpeed="28.00" duration="47.20" routeLength="1079.61" waitingTime="0.00" waitingCount="0" stopTime="0.00" timeLoss="7.13" rerouteNo="1" devices="tripinfo_A3_1.4 routing_A3_1.4" vType="truck" speedFactor="1.01" vaporized=""/>
    <tripinfo id="D1_1.4" depart="178.90" departLane="140483224#1_1" departPos="8.10" departPosLat="0.00" departSpeed="27.78" departDelay="0.00" arrival="337.05" arrivalLane="-793339796#2_2" arrivalPos="83.13" arrivalPosLat="0.00" arrivalSpeed="24.58" duration="158.15" routeLength="1645.45" waitingTime="55.45" waitingCount="2" stopTime="0.00" timeLoss="96.55" rerouteNo="1" devices="tripinfo_D1_1.4 routing_D1_1.4" vType="jeep" speedFactor="1.00" vaporized=""/>
    <tripinfo id="C1_1.2" depart="231.00" departLane="440471861#0_1" departPos="8.10" departPosLat="0.00" departSpeed="27.78" departDelay="0.00" arrival="343.95" arrivalLane="-793339796#2_2" arrivalPos="83.13" arrivalPosLat="0.00" arrivalSpeed="24.45" duration="112.95" routeLength="1651.03" waitingTime="19.20" waitingCount="1" stopTime="0.00" timeLoss="52.41" rerouteNo="1" devices="tripinfo_C1_1.2 routing_C1_1.2" vType="jeep" speedFactor="1.00" vaporized=""/>
    <tripinfo id="B1_1.0" depart="171.30" departLane="-361257727#0_1" departPos="5.10" departPosLat="0.00" departSpeed="7.20" departDelay="0.00" arrival="345.35" arrivalLane="-793339796#2_2" arrivalPos="83.13" arrivalPosLat="0.00" arrivalSpeed="24.01" duration="174.05" routeLength="1915.62" waitingTime="0.30" waitingCount="1" stopTime="0.00" timeLoss="18.30" rerouteNo="1" devices="tripinfo_B1_1.0 routing_B1_1.0" vType="car" speedFactor="0.86" vaporized=""/>
    <tripinfo id="D1_1.5" depart="226.35" departLane="140483224#1_1" departPos="5.10" departPosLat="0.00" departSpeed="27.67" departDelay="0.00" arrival="346.95" arrivalLane="-793339796#2_2" arrivalPos="83.13" arrivalPosLat="0.00" arrivalSpeed="27.61" duration="120.60" routeLength="1648.45" waitingTime="33.85" waitingCount="1" stopTime="0.00" timeLoss="58.67" rerouteNo="1" devices="tripinfo_D1_1.5 routing_D1_1.5" vType="car" speedFactor="1.00" vaporized=""/>
    <tripinfo id="B2_1.2" depart="198.55" departLane="-361257727#0_1" departPos="8.10" departPosLat="0.00" departSpeed="8.33" departDelay="0.00" arrival="347.15" arrivalLane="-440471861#0_2" arrivalPos="31.49" arrivalPosLat="0.00" arrivalSpeed="27.77" duration="148.60" routeLength="1411.29" waitingTime="10.85" waitingCount="1" stopTime="0.00" timeLoss="29.94" rerouteNo="1" devices="tripinfo_B2_1.2 routing_B2_1.2" vType="jeep" speedFactor="1.00" vaporized=""/>
    <tripinfo id="A2_1.4" depart="337.55" departLane="-793339796#2_1" departPos="2.30" departPosLat="0.00" departSpeed="27.38" departDelay="0.00" arrival="377.30" arrivalLane="-440471861#0_1" arrivalPos="31.49" arrivalPosLat="0.00" arrivalSpeed="27.28" duration="39.75" routeLength="1084.69" waitingTime="0.00" waitingCount="0" stopTime="0.00" timeLoss="0.11" rerouteNo="1" devices="tripinfo_A2_1.4 routing_A2_1.4" vType="motorcycle" speedFactor="0.99" vaporized=""/>
    <tripinfo id="C1_1.3" depart="288.55" departLane="440471861#0_1" departPos="5.10" departPosLat="0.00" departSpeed="28.66" departDelay="0.00" arrival="378.90" arrivalLane="-793339796#2_2" arrivalPos="83.13" arrivalPosLat="0.00" arrivalSpeed="28.65" duration="90.35" routeLength="1654.03" waitingTime="12.85" waitingCount="1" stopTime="0.00" timeLoss="31.52" rerouteNo="1" devices="tripinfo_C1_1.3 routing_C1_1.3" vType="car" speedFactor="1.03" vaporized=""/>
    <personinfo id="pf_2.8" depart="288.00" type="ped" speedFactor="1.06" duration="92.30" waitingTime="69.55" timeLoss="71.79" traveltime="92.30">
        <walk depart="288.00" departPos="15.72" arrival="380.30" arrivalPos="4.00" duration="92.30" routeLength="30.33" timeLoss="71.79" maxSpeed="1.48" waitingTime="69.55"/>
    </personinfo>
    <personinfo id="pf_1.0" depart="0.00" type="ped" speedFactor="1.06" duration="380.45" waitingTime="132.85" timeLoss="157.54" traveltime="380.45">
        <walk depart="0.00" departPos="25.00" arrival="380.45" arrivalPos="4.00" duration="380.45" routeLength="328.17" timeLoss="157.54" maxSpeed="1.47" waitingTime="132.85"/>
    </personinfo>
    <personinfo id="pf_1.3" depart="108.00" type="ped" speedFactor="1.08" duration="272.85" waitingTime="29.10" timeLoss="54.62" traveltime="272.85">
        <walk depart="108.00" departPos="25.00" arrival="380.85" arrivalPos="4.00" duration="272.85" routeLength="328.17" timeLoss="54.62" maxSpeed="1.50" waitingTime="29.10"/>
    </personinfo>
    <personinfo id="pf_1.2" depart="72.00" type="ped" speedFactor="1.01" duration="309.15" waitingTime="49.00" timeLoss="75.30" traveltime="309.15">
        <walk depart="72.00" departPos="25.00" arrival="381.15" arrivalPos="4.00" duration="309.15" routeLength="328.17" timeLoss="75.30" maxSpeed="1.40" waitingTime="49.00"/>
    </personinfo>
    <personinfo id="pf_1.1" depart="36.00" type="ped" speedFactor="0.94" duration="346.35" waitingTime="66.75" timeLoss="94.53" traveltime="346.35">
        <walk depart="36.00" departPos="25.00" arrival="382.35" arrivalPos="4.00" duration="346.35" routeLength="328.17" timeLoss="94.53" maxSpeed="1.30" waitingTime="66.75"/>
    </personinfo>
    <personinfo id="pf_2.9" depart="324.00" type="ped" speedFactor="0.96" duration="58.65" waitingTime="33.40" timeLoss="35.89" traveltime="58.65">
        <walk depart="324.00" departPos="15.72" arrival="382.65" arrivalPos="4.00" duration="58.65" routeLength="30.33" timeLoss="35.89" maxSpeed="1.33" waitingTime="33.40"/>
    </personinfo>
    <personinfo id="pf_2.10" depart="360.00" type="ped" speedFactor="0.93" duration="26.05" waitingTime="0.00" timeLoss="2.51" traveltime="26.05">
        <walk depart="360.00" departPos="15.72" arrival="386.05" arrivalPos="4.00" duration="26.05" routeLength="30.33" timeLoss="2.51" maxSpeed="1.29" waitingTime="0.00"/>
    </personinfo>
    <tripinfo id="B3_1.0" depart="241.30" departLane="-361257727#0_1" departPos="5.10" departPosLat="0.00" departSpeed="9.73" departDelay="0.00" arrival="388.20" arrivalLane="-140483224#1_1" arrivalPos="64.17" arrivalPosLat="0.00" arrivalSpeed="32.38" duration="146.90" routeLength="1427.09" waitingTime="33.35" waitingCount="1" stopTime="0.00" timeLoss="44.81" rerouteNo="1" devices="tripinfo_B3_1.0 routing_B3_1.0" vType="car" speedFactor="1.17" vaporized=""/>
    <tripinfo id="C2_1.2" depart="289.65" departLane="440471861#0_2" departPos="2.30" departPosLat="0.00" departSpeed="28.22" departDelay="0.00" arrival="392.50" arrivalLane="-145894807#0_1" arrivalPos="260.97" arrivalPosLat="0.00" arrivalSpeed="8.41" duration="102.85" routeLength="1102.71" waitingTime="13.10" waitingCount="1" stopTime="0.00" timeLoss="16.79" rerouteNo="1" devices="tripinfo_C2_1.2 routing_C2_1.2" vType="motorcycle" speedFactor="1.02" vaporized=""/>
    <personinfo id="pf_4.0" depart="0.00" type="ped" speedFactor="1.07" duration="408.30" waitingTime="301.20" timeLoss="312.91" traveltime="408.30">
        <walk depart="0.00" departPos="25.00" arrival="52.20" arrivalPos="27.07" duration="52.20" routeLength="69.89" timeLoss="5.18" maxSpeed="1.49" waitingTime="0.00"/>
        <walk depart="52.20" departPos="27.07" arrival="408.30" arrivalPos="27.01" duration="356.10" routeLength="71.90" timeLoss="307.73" maxSpeed="1.49" waitingTime="301.20"/>
    </personinfo>
    <tripinfo id="D3_1.3" depart="338.40" departLane="140483224#1_2" departPos="5.10" departPosLat="0.00" departSpeed="28.13" departDelay="0.00" arrival="409.80" arrivalLane="-440471861#0_2" arrivalPos="31.49" arrivalPosLat="0.00" arrivalSpeed="28.10" duration="71.40" routeLength="1069.09" waitingTime="23.10" waitingCount="1" stopTime="0.00" timeLoss="31.98" rerouteNo="1" devices="tripinfo_D3_1.3 routing_D3_1.3" vType="car" speedFactor="1.01" vaporized=""/>
    <tripinfo id="D2_1.0" depart="290.30" departLane="140483224#1_1" departPos="5.10" departPosLat="0.00" departSpeed="24.33" departDelay="0.00" arrival="414.75" arrivalLane="-145894807#0_1" arrivalPos="260.97" arrivalPosLat="0.00" arrivalSpeed="7.27" duration="124.45" routeLength="1109.85" waitingTime="18.20" waitingCount="1" stopTime="0.00" timeLoss="24.71" rerouteNo="1" devices="tripinfo_D2_1.0 routing_D2_1.0" vType="car" speedFactor="0.88" vaporized=""/>
    <tripinfo id="A1_1.1" depart="322.60" departLane="-793339796#2_1" departPos="2.30" departPosLat="0.00" departSpeed="28.23" departDelay="0.00" arrival="416.30" arrivalLane="-145894807#0_1" arrivalPos="260.97" arrivalPosLat="0.00" arrivalSpeed="8.44" duration="93.70" routeLength="1060.25" waitingTime="0.00" waitingCount="0" stopTime="0.00" timeLoss="5.51" rerouteNo="1" devices="tripinfo_A1_1.1 routing_A1_1.1" vType="motorcycle" speedFactor="1.02" vaporized=""/>
    <tripinfo id="D3_1.4" depart="358.75" departLane="140483224#1_1" departPos="7.20" departPosLat="0.00" departSpeed="25.92" departDelay="0.00" arrival="418.25" arrivalLane="-440471861#0_2" arrivalPos="31.49" arrivalPosLat="0.00" arrivalSpeed="25.92" duration="59.50" routeLength="1066.99" waitingTime="1.45" waitingCount="1" stopTime="0.00" timeLoss="16.78" rerouteNo="1" devices="tripinfo_D3_1.4 routing_D3_1.4" vType="truck" speedFactor="0.93" vaporized=""/>
    <tripinfo id="A1_1.2" depart="329.65" departLane="-793339796#2_1" departPos="8.10" departPosLat="0.00" departSpeed="27.78" departDelay="0.00" arrival="423.90" arrivalLane="-145894807#0_1" arrivalPos="260.97" arrivalPosLat="0.00" arrivalSpeed="8.32" duration="94.25" routeLength="1054.45" waitingTime="0.00" waitingCount="0" stopTime="0.00" timeLoss="4.85" rerouteNo="1" devices="tripinfo_A1_1.2 routing_A1_1.2" vType="jeep" speedFactor="1.00" vaporized=""/>
    <personinfo id="pf_3.2" depart="72.00" type="ped" speedFactor="1.03" duration="370.70" waitingTime="3.35" timeLoss="40.18" traveltime="370.70">
        <walk depart="72.00" departPos="25.00" arrival="179.90" arrivalPos="18.88" duration="107.90" routeLength="135.02" timeLoss="13.98" maxSpeed="1.44" waitingTime="3.35"/>
        <walk depart="179.90" departPos="18.88" arrival="442.70" arrivalPos="22.75" duration="262.80" routeLength="340.11" timeLoss="26.20" maxSpeed="1.44" waitingTime="0.00"/>
    </personinfo>
    <tripinfo id="C1_1.4" depart="324.05" departLane="440471861#0_1" departPos="5.10" departPosLat="0.00" departSpeed="24.70" departDelay="0.00" arrival="443.30" arrivalLane="-793339796#2_2" arrivalPos="83.13" arrivalPosLat="0.00" arrivalSpeed="24.68" duration="119.25" routeLength="1654.03" waitingTime="28.65" waitingCount="2" stopTime="0.00" timeLoss="51.05" rerouteNo="1" devices="tripinfo_C1_1.4 routing_C1_1.4" vType="car" speedFactor="0.89" vaporized=""/>
    <tripinfo id="A1_1.3" depart="342.40" departLane="-793339796#2_1" departPos="5.10" departPosLat="0.00" departSpeed="24.66" departDelay="0.00" arrival="446.50" arrivalLane="-145894807#0_1" arrivalPos="260.97" arrivalPosLat="0.00" arrivalSpeed="7.35" duration="104.10" routeLength="1057.45" waitingTime="0.00" waitingCount="0" stopTime="0.00" timeLoss="3.25" rerouteNo="1" devices="tripinfo_A1_1.3 routing_A1_1.3" vType="car" speedFactor="0.89" vaporized=""/>
    <tripinfo id="D1_1.6" depart="370.50" departLane="140483224#1_1" departPos="5.10" departPosLat="0.00" departSpeed="22.10" departDelay="0.00" arrival="458.50" arrivalLane="-793339796#2_2" arrivalPos="83.13" arrivalPosLat="0.00" arrivalSpeed="22.05" duration="88.00" routeLength="1648.45" waitingTime="0.00" waitingCount="0" stopTime="0.00" timeLoss="10.42" rerouteNo="1" devices="tripinfo_D1_1.6 routing_D1_1.6" vType="car" speedFactor="0.80" vaporized=""/>
    <tripinfo id="D3_1.5" depart="380.35" departLane="140483224#1_2" departPos="5.10" departPosLat="0.00" departSpeed="31.25" departDelay="0.00" arrival="464.05" arrivalLane="-440471861#0_2" arrivalPos="31.49" arrivalPosLat="0.00" arrivalSpeed="31.20" duration="83.70" routeLength="1069.09" waitingTime="38.10" waitingCount="1" stopTime="0.00" timeLoss="48.20" rerouteNo="1" devices="tripinfo_D3_1.5 routing_D3_1.5" vType="car" speedFactor="1.12" vaporized=""/>
    <tripinfo id="A1_1.4" depart="395.70" departLane="-793339796#2_1" departPos="5.10" departPosLat="0.00" departSpeed="32.18" departDelay="12.50" arrival="477.20" arrivalLane="-145894807#0_1" arrivalPos="260.97" arrivalPosLat="0.00" arrivalSpeed="9.59" duration="81.50" routeLength="1057.45" waitingTime="0.00" waitingCount="0" stopTime="0.00" timeLoss="4.21" rerouteNo="1" devices="tripinfo_A1_1.4 routing_A1_1.4" vType="car" speedFactor="1.16" vaporized=""/>
    <tripinfo id="A3_1.5" depart="446.95" departLane="-793339796#2_2" departPos="5.10" departPosLat="0.00" departSpeed="27.72" departDelay="27.15" arrival="491.60" arrivalLane="-140483224#1_2" arrivalPos="64.17" arrivalPosLat="0.00" arrivalSpeed="27.67" duration="44.65" routeLength="1081.71" waitingTime="0.00" waitingCount="0" stopTime="0.00" timeLoss="4.07" rerouteNo="1" devices="tripinfo_A3_1.5 routing_A3_1.5" vType="car" speedFactor="1.00" vaporized=""/>
    <personinfo id="pf_1.4" depart="144.00" type="ped" speedFactor="1.03" duration="352.10" waitingTime="97.25" timeLoss="122.77" traveltime="352.10">
        <walk depart="144.00" departPos="25.00" arrival="496.10" arrivalPos="4.00" duration="352.10" routeLength="328.17" timeLoss="122.77" maxSpeed="1.43" waitingTime="97.25"/>
    </personinfo>
    <personinfo id="pf_2.13" depart="468.00" type="ped" speedFactor="1.01" duration="28.30" waitingTime="4.30" timeLoss="6.65" traveltime="28.30">