<?xml version="1.0" encoding="UTF-8"?>

<!-- generated on 2025-11-11 18:38:41 by Eclipse SUMO sumo Version 1.24.0
<sumoConfiguration xmlns:xsi="http://www.w3.org/2001/XMLSchema-instance" xsi:noNamespaceSchemaLocation="http://sumo.dlr.de/xsd/sumoConfiguration.xsd">

    <input>
        <net-file value="Olivarez_traci\network/map.net.xml"/>
        <route-files value="Olivarez_traci\demand/demand.rou.xml"/>
        <additional-files value="Olivarez_traci\additionals/map.poly.xml,Olivarez_traci\ additionals/detectors.add.xml"/>
    </input>

    <output>
        <tripinfo-output value="Olivarez_traci\output_DQN\SD_DQN_trips.xml"/>
        <statistic-output value="Olivarez_traci\output_DQN\SD_DQN_stats.xml"/>
    </output>

    <time>
        <begin value="0"/>
        <end value="10000"/>
        <step-length value="0.05"/>
    </time>

    <processing>
        <lateral-resolution value="0.1"/>
        <collision.action value="none"/>
        <collision.check-junctions value="false"/>
        <collision.mingap-factor value="0"/>
    </processing>

    <report>
        <no-warnings value="true"/>
    </report>

    <traci_server>
        <remote-port value="51503"/>
    </traci_server>

    <gui_only>
        <delay value="0"/>
    </gui_only>

</sumoConfiguration>
-->

<tripinfos xmlns:xsi="http://www.w3.org/2001/XMLSchema-instance" xsi:noNamespaceSchemaLocation="http://sumo.dlr.de/xsd/tripinfo_file.xsd">
    <tripinfo id="D3_1.0" depart="7.65" departLane="140483224#1_2" departPos="5.10" departPosLat="0.00" departSpeed="29.23" departDelay="0.00" arrival="50.40" arrivalLane="-440471861#0_2" arrivalPos="31.49" arrivalPosLat="0.00" arrivalSpeed="29.22" duration="42.75" routeLength="1069.11" waitingTime="0.00" waitingCount="0" stopTime="0.00" timeLoss="4.78" rerouteNo="1" devices="tripinfo_D3_1.0 routing_D3_1.0" vType="car" speedFactor="1.05" vaporized=""/>
    <tripinfo id="A2_1.0" depart="4.45" departLane="-793339796#2_1" departPos="5.10" departPosLat="0.00" departSpeed="26.72" departDelay="0.00" arrival="62.20" arrivalLane="-440471861#0_1" arrivalPos="31.49" arrivalPosLat="0.00" arrivalSpeed="26.68" duration="57.75" routeLength="1081.89" waitingTime="7.60" waitingCount="1" stopTime="0.00" timeLoss="17.23" rerouteNo="1" devices="tripinfo_A2_1.0 routing_A2_1.0" vType="car" speedFactor="0.96" vaporized=""/>
    <tripinfo id="D1_1.0" depart="0.60" departLane="140483224#1_1" departPos="8.10" departPosLat="0.00" departSpeed="31.73" departDelay="0.00" arrival="69.35" arrivalLane="-793339796#2_2" arrivalPos="83.13" arrivalPosLat="0.00" arrivalSpeed="31.68" duration="68.75" routeLength="1645.47" waitingTime="0.00" waitingCount="0" stopTime="0.00" timeLoss="14.84" rerouteNo="1" devices="tripinfo_D1_1.0 routing_D1_1.0" vType="jeep" speedFactor="1.14" vaporized=""/>
    <tripinfo id="C3_1.0" depart="43.55" departLane="440471861#0_1" departPos="2.30" departPosLat="0.00" departSpeed="28.16" departDelay="0.00" arrival="94.55" arrivalLane="-140483224#1_1" arrivalPos="64.17" arrivalPosLat="-0.00" arrivalSpeed="28.12" duration="51.00" routeLength="1056.75" waitingTime="0.00" waitingCount="0" stopTime="0.00" timeLoss="12.38" rerouteNo="1" devices="tripinfo_C3_1.0 routing_C3_1.0" vType="tricycle" speedFactor="1.01" vaporized=""/>
    <tripinfo id="C1_1.0" depart="31.85" departLane="440471861#0_1" departPos="2.30" departPosLat="0.00" departSpeed="30.61" departDelay="0.00" arrival="123.25" arrivalLane="-793339796#2_2" arrivalPos="83.13" arrivalPosLat="0.00" arrivalSpeed="30.47" duration="91.40" routeLength="1656.83" waitingTime="23.25" waitingCount="2" stopTime="0.00" timeLoss="36.25" rerouteNo="1" devices="tripinfo_C1_1.0 routing_C1_1.0" vType="motorcycle" speedFactor="1.10" vaporized=""/>
    <tripinfo id="D1_1.1" depart="46.15" departLane="140483224#1_1" departPos="2.30" departPosLat="0.00" departSpeed="29.74" departDelay="0.00" arrival="132.90" arrivalLane="-793339796#2_2" arrivalPos="83.13" arrivalPosLat="0.00" arrivalSpeed="29.69" duration="86.75" routeLength="1651.27" waitingTime="9.95" waitingCount="1" stopTime="0.00" timeLoss="28.98" rerouteNo="1" devices="tripinfo_D1_1.1 routing_D1_1.1" vType="tricycle" speedFactor="1.07" vaporized=""/>
    <tripinfo id="C2_1.0" depart="20.15" departLane="440471861#0_2" departPos="5.10" departPosLat="0.00" departSpeed="28.79" departDelay="0.00" arrival="135.35" arrivalLane="-145894807#0_1" arrivalPos="260.97" arrivalPosLat="0.00" arrivalSpeed="8.62" duration="115.20" routeLength="1099.91" waitingTime="23.90" waitingCount="1" stopTime="0.00" timeLoss="30.94" rerouteNo="1" devices="tripinfo_C2_1.0 routing_C2_1.0" vType="car" speedFactor="1.04" vaporized=""/>
    <tripinfo id="C1_1.1" depart="41.05" departLane="440471861#0_1" departPos="5.10" departPosLat="0.00" departSpeed="26.92" departDelay="0.00" arrival="136.85" arrivalLane="-793339796#2_2" arrivalPos="83.13" arrivalPosLat="0.00" arrivalSpeed="26.86" duration="95.80" routeLength="1654.03" waitingTime="7.30" waitingCount="2" stopTime="0.00" timeLoss="33.21" rerouteNo="1" devices="tripinfo_C1_1.1 routing_C1_1.1" vType="car" speedFactor="0.97" vaporized=""/>
    <tripinfo id="D1_1.2" depart="58.55" departLane="140483224#1_1" departPos="2.30" departPosLat="0.00" departSpeed="27.78" departDelay="0.00" arrival="141.25" arrivalLane="-793339796#2_2" arrivalPos="83.13" arrivalPosLat="0.00" arrivalSpeed="27.74" duration="82.70" routeLength="1651.27" waitingTime="0.00" waitingCount="0" stopTime="0.00" timeLoss="20.89" rerouteNo="1" devices="tripinfo_D1_1.2 routing_D1_1.2" vType="tricycle" speedFactor="1.00" vaporized=""/>
    <personinfo id="pf_1.0" depart="0.00" type="ped" speedFactor="1.06" duration="148.15" waitingTime="34.05" timeLoss="45.29" traveltime="148.15">
        <walk depart="0.00" departPos="25.00" arrival="148.15" arrivalPos="7.46" duration="148.15" routeLength="151.44" timeLoss="45.29" maxSpeed="1.47" waitingTime="34.05"/>
    </personinfo>
    <personinfo id="pf_1.1" depart="36.00" type="ped" speedFactor="0.94" duration="129.10" waitingTime="0.00" timeLoss="12.89" traveltime="129.10">
        <walk depart="36.00" departPos="25.00" arrival="165.10" arrivalPos="7.46" duration="129.10" routeLength="151.44" timeLoss="12.89" maxSpeed="1.30" waitingTime="0.00"/>
    </personinfo>
    <tripinfo id="A1_1.0" depart="78.95" departLane="-793339796#2_1" departPos="7.20" departPosLat="0.00" departSpeed="29.06" departDelay="0.00" arrival="169.75" arrivalLane="-145894807#0_1" arrivalPos="260.97" arrivalPosLat="0.00" arrivalSpeed="8.71" duration="90.80" routeLength="1055.35" waitingTime="0.00" waitingCount="0" stopTime="0.00" timeLoss="5.29" rerouteNo="1" devices="tripinfo_A1_1.0 routing_A1_1.0" vType="truck" speedFactor="1.05" vaporized=""/>
    <tripinfo id="C3_1.1" depart="78.25" departLane="440471861#0_1" departPos="8.10" departPosLat="0.00" departSpeed="29.57" departDelay="0.00" arrival="174.45" arrivalLane="-140483224#1_1" arrivalPos="64.17" arrivalPosLat="-0.00" arrivalSpeed="29.51" duration="96.20" routeLength="1050.95" waitingTime="43.95" waitingCount="2" stopTime="0.00" timeLoss="59.61" rerouteNo="1" devices="tripinfo_C3_1.1 routing_C3_1.1" vType="jeep" speedFactor="1.06" vaporized=""/>
    <tripinfo id="B2_1.0" depart="31.00" departLane="-361257727#0_1" departPos="5.10" departPosLat="0.00" departSpeed="9.74" departDelay="0.00" arrival="190.90" arrivalLane="-440471861#0_1" arrivalPos="31.49" arrivalPosLat="0.00" arrivalSpeed="32.43" duration="159.90" routeLength="1414.29" waitingTime="46.70" waitingCount="1" stopTime="0.00" timeLoss="58.12" rerouteNo="1" devices="tripinfo_B2_1.0 routing_B2_1.0" vType="car" speedFactor="1.17" vaporized=""/>
    <tripinfo id="B1_1.0" depart="37.80" departLane="-361257727#0_1" departPos="5.10" departPosLat="0.00" departSpeed="8.02" departDelay="0.00" arrival="191.55" arrivalLane="-793339796#2_2" arrivalPos="83.13" arrivalPosLat="0.00" arrivalSpeed="26.70" duration="153.75" routeLength="1915.62" waitingTime="0.00" waitingCount="0" stopTime="0.00" timeLoss="13.88" rerouteNo="1" devices="tripinfo_B1_1.0 routing_B1_1.0" vType="car" speedFactor="0.96" vaporized=""/>
    <tripinfo id="B2_1.1" depart="64.60" departLane="-361257727#0_1" departPos="5.10" departPosLat="0.00" departSpeed="7.58" departDelay="0.00" arrival="200.05" arrivalLane="-440471861#0_1" arrivalPos="31.49" arrivalPosLat="0.00" arrivalSpeed="25.26" duration="135.45" routeLength="1414.29" waitingTime="0.00" waitingCount="0" stopTime="0.00" timeLoss="4.72" rerouteNo="1" devices="tripinfo_B2_1.1 routing_B2_1.1" vType="car" speedFactor="0.91" vaporized=""/>
    <tripinfo id="C3_1.2" depart="161.95" departLane="440471861#0_1" departPos="5.10" departPosLat="0.00" departSpeed="24.74" departDelay="0.00" arrival="211.75" arrivalLane="-140483224#1_1" arrivalPos="64.17" arrivalPosLat="-0.00" arrivalSpeed="24.73" duration="49.80" routeLength="1053.95" waitingTime="0.00" waitingCount="0" stopTime="0.00" timeLoss="5.89" rerouteNo="1" devices="tripinfo_C3_1.2 routing_C3_1.2" vType="car" speedFactor="0.89" vaporized=""/>
    <tripinfo id="D3_1.1" depart="100.85" departLane="140483224#1_2" departPos="8.10" departPosLat="0.00" departSpeed="30.83" departDelay="0.00" arrival="216.55" arrivalLane="-440471861#0_2" arrivalPos="31.49" arrivalPosLat="0.00" arrivalSpeed="30.78" duration="115.70" routeLength="1066.11" waitingTime="64.20" waitingCount="2" stopTime="0.00" timeLoss="79.79" rerouteNo="1" devices="tripinfo_D3_1.1 routing_D3_1.1" vType="jeep" speedFactor="1.11" vaporized=""/>
    <tripinfo id="A1_1.1" depart="125.65" departLane="-793339796#2_1" departPos="2.30" departPosLat="0.00" departSpeed="27.06" departDelay="0.00" arrival="219.70" arrivalLane="-145894807#0_1" arrivalPos="260.97" arrivalPosLat="0.00" arrivalSpeed="7.99" duration="94.05" routeLength="1060.25" waitingTime="0.00" waitingCount="0" stopTime="0.00" timeLoss="2.03" rerouteNo="1" devices="tripinfo_A1_1.1 routing_A1_1.1" vType="motorcycle" speedFactor="0.97" vaporized=""/>
    <tripinfo id="A1_1.2" depart="154.60" departLane="-793339796#2_1" departPos="2.30" departPosLat="0.00" departSpeed="31.66" departDelay="0.00" arrival="235.35" arrivalLane="-145894807#0_1" arrivalPos="260.97" arrivalPosLat="0.00" arrivalSpeed="9.43" duration="80.75" routeLength="1060.25" waitingTime="0.00" waitingCount="0" stopTime="0.00" timeLoss="2.11" rerouteNo="1" devices="tripinfo_A1_1.2 routing_A1_1.2" vType="motorcycle" speedFactor="1.14" vaporized=""/>
    <personinfo id="pf_1.3" depart="108.00" type="ped" speedFactor="1.08" duration="139.40" waitingTime="27.35" timeLoss="38.69" traveltime="139.40">
        <walk depart="108.00" departPos="25.00" arrival="247.40" arrivalPos="7.46" duration="139.40" routeLength="151.44" timeLoss="38.69" maxSpeed="1.50" waitingTime="27.35"/>
    </personinfo>
    <tripinfo id="A3_1.1" depart="148.50" departLane="-793339796#2_1" departPos="2.30" departPosLat="0.00" departSpeed="32.00" departDelay="0.00" arrival="249.20" arrivalLane="-140483224#1_2" arrivalPos="64.17" arrivalPosLat="0.00" arrivalSpeed="31.97" duration="100.70" routeLength="1084.53" waitingTime="51.55" waitingCount="3" stopTime="0.00" timeLoss="65.49" rerouteNo="1" devices="tripinfo_A3_1.1 routing_A3_1.1" vType="motorcycle" speedFactor="1.15" vaporized=""/>
    <tripinfo id="C2_1.1" depart="161.10" departLane="440471861#0_2" departPos="5.10" departPosLat="0.00" departSpeed="28.93" departDelay="0.00" arrival="249.50" arrivalLane="-145894807#0_1" arrivalPos="260.97" arrivalPosLat="0.00" arrivalSpeed="8.65" duration="88.40" routeLength="1099.91" waitingTime="0.00" waitingCount="0" stopTime="0.00" timeLoss="4.51" rerouteNo="1" devices="tripinfo_C2_1.1 routing_C2_1.1" vType="car" speedFactor="1.04" vaporized=""/>
    <personinfo id="pf_1.2" depart="72.00" type="ped" speedFactor="1.01" duration="178.25" waitingTime="58.20" timeLoss="70.34" traveltime="178.25">
        <walk depart="72.00" departPos="25.00" arrival="250.25" arrivalPos="7.46" duration="178.25" routeLength="151.44" timeLoss="70.34" maxSpeed="1.40" waitingTime="58.20"/>
    </personinfo>
    <tripinfo id="A3_1.0" depart="107.30" departLane="-793339796#2_1" departPos="2.30" departPosLat="0.00" departSpeed="23.62" departDelay="0.00" arrival="253.85" arrivalLane="-140483224#1_2" arrivalPos="64.17" arrivalPosLat="0.00" arrivalSpeed="23.56" duration="146.55" routeLength="1084.53" waitingTime="89.40" waitingCount="3" stopTime="0.00" timeLoss="98.87" rerouteNo="1" devices="tripinfo_A3_1.0 routing_A3_1.0" vType="motorcycle" speedFactor="0.85" vaporized=""/>
    <tripinfo id="B2_1.2" depart="75.15" departLane="-361257727#0_1" departPos="5.10" departPosLat="0.00" departSpeed="7.68" departDelay="0.00" arrival="253.95" arrivalLane="-440471861#0_1" arrivalPos="31.49" arrivalPosLat="0.00" arrivalSpeed="25.57" duration="178.80" routeLength="1414.29" waitingTime="41.25" waitingCount="1" stopTime="0.00" timeLoss="49.80" rerouteNo="1" devices="tripinfo_B2_1.2 routing_B2_1.2" vType="car" speedFactor="0.92" vaporized=""/>
    <personinfo id="pf_1.4" depart="144.00" type="ped" speedFactor="1.03" duration="117.40" waitingTime="0.00" timeLoss="11.57" traveltime="117.40">
        <walk depart="144.00" departPos="25.00" arrival="261.40" arrivalPos="7.46" duration="117.40" routeLength="151.44" timeLoss="11.57" maxSpeed="1.43" waitingTime="0.00"/>
    </personinfo>
    <tripinfo id="C3_1.3" depart="180.75" departLane="440471861#0_1" departPos="5.10" departPosLat="0.00" departSpeed="26.94" departDelay="0.00" arrival="263.10" arrivalLane="-140483224#1_1" arrivalPos="64.17" arrivalPosLat="-0.00" arrivalSpeed="26.93" duration="82.35" routeLength="1053.95" waitingTime="33.55" waitingCount="1" stopTime="0.00" timeLoss="42.03" rerouteNo="1" devices="tripinfo_C3_1.3 routing_C3_1.3" vType="car" speedFactor="0.97" vaporized=""/>
    <tripinfo id="D3_1.2" depart="208.30" departLane="140483224#1_1" departPos="2.30" departPosLat="0.00" departSpeed="27.02" departDelay="0.00" arrival="270.60" arrivalLane="-440471861#0_2" arrivalPos="31.49" arrivalPosLat="0.00" arrivalSpeed="26.91" duration="62.30" routeLength="1071.91" waitingTime="14.15" waitingCount="2" stopTime="0.00" timeLoss="21.12" rerouteNo="1" devices="tripinfo_D3_1.2 routing_D3_1.2" vType="motorcycle" speedFactor="0.97" vaporized=""/>
    <tripinfo id="D1_1.4" depart="178.90" departLane="140483224#1_1" departPos="5.10" departPosLat="0.00" departSpeed="31.36" departDelay="0.00" arrival="272.40" arrivalLane="-793339796#2_2" arrivalPos="83.13" arrivalPosLat="0.00" arrivalSpeed="31.32" duration="93.50" routeLength="1648.47" waitingTime="16.60" waitingCount="1" stopTime="0.00" timeLoss="38.86" rerouteNo="1" devices="tripinfo_D1_1.4 routing_D1_1.4" vType="car" speedFactor="1.13" vaporized=""/>
    <tripinfo id="D1_1.3" depart="118.00" departLane="140483224#1_1" departPos="2.30" departPosLat="0.00" departSpeed="28.91" departDelay="0.00" arrival="278.00" arrivalLane="-793339796#2_2" arrivalPos="83.13" arrivalPosLat="0.00" arrivalSpeed="28.90" duration="160.00" routeLength="1651.27" waitingTime="68.20" waitingCount="3" stopTime="0.00" timeLoss="100.64" rerouteNo="1" devices="tripinfo_D1_1.3 routing_D1_1.3" vType="tricycle" speedFactor="1.04" vaporized=""/>
    <tripinfo id="A3_1.2" depart="227.15" departLane="-793339796#2_2" departPos="5.10" departPosLat="0.00" departSpeed="28.96" departDelay="0.00" arrival="287.95" arrivalLane="-140483224#1_2" arrivalPos="64.17" arrivalPosLat="0.00" arrivalSpeed="28.94" duration="60.80" routeLength="1081.73" waitingTime="6.75" waitingCount="2" stopTime="0.00" timeLoss="22.04" rerouteNo="1" devices="tripinfo_A3_1.2 routing_A3_1.2" vType="car" speedFactor="1.04" vaporized=""/>
    <tripinfo id="A2_1.1" depart="261.45" departLane="-793339796#2_1" departPos="8.10" departPosLat="0.00" departSpeed="29.72" departDelay="0.00" arrival="297.80" arrivalLane="-440471861#0_1" arrivalPos="31.49" arrivalPosLat="0.00" arrivalSpeed="29.67" duration="36.35" routeLength="1078.89" waitingTime="0.00" waitingCount="0" stopTime="0.00" timeLoss="0.04" rerouteNo="1" devices="tripinfo_A2_1.1 routing_A2_1.1" vType="jeep" speedFactor="1.07" vaporized=""/>
    <tripinfo id="D1_1.5" depart="226.35" departLane="140483224#1_1" departPos="5.10" departPosLat="0.00" departSpeed="30.89" departDelay="0.00" arrival="298.85" arrivalLane="-793339796#2_2" arrivalPos="83.13" arrivalPosLat="0.00" arrivalSpeed="30.84" duration="72.50" routeLength="1648.47" waitingTime="0.00" waitingCount="0" stopTime="0.00" timeLoss="17.00" rerouteNo="1" devices="tripinfo_D1_1.5 routing_D1_1.5" vType="car" speedFactor="1.11" vaporized=""/>
    <tripinfo id="A1_1.3" depart="222.65" departLane="-793339796#2_1" departPos="7.20" departPosLat="0.00" departSpeed="27.11" departDelay="0.00" arrival="325.55" arrivalLane="-145894807#0_1" arrivalPos="260.97" arrivalPosLat="0.00" arrivalSpeed="8.12" duration="102.90" routeLength="1055.35" waitingTime="2.45" waitingCount="1" stopTime="0.00" timeLoss="11.25" rerouteNo="1" devices="tripinfo_A1_1.3 routing_A1_1.3" vType="truck" speedFactor="0.98" vaporized=""/>
    <tripinfo id="B1_1.1" depart="171.30" departLane="-361257727#0_1" departPos="7.20" departPosLat="0.00" departSpeed="8.86" departDelay="0.00" arrival="326.65" arrivalLane="-793339796#2_2" arrivalPos="83.13" arrivalPosLat="0.00" arrivalSpeed="25.63" duration="155.35" routeLength="1913.52" waitingTime="0.00" waitingCount="0" stopTime="0.00" timeLoss="28.93" rerouteNo="1" devices="tripinfo_B1_1.1 routing_B1_1.1" vType="truck" speedFactor="1.06" vaporized=""/>
    <personinfo id="pf_1.5" depart="180.00" type="ped" speedFactor="0.83" duration="153.60" waitingTime="8.25" timeLoss="22.39" traveltime="153.60">
        <walk depart="180.00" departPos="25.00" arrival="333.60" arrivalPos="7.46" duration="153.60" routeLength="151.44" timeLoss="22.39" maxSpeed="1.15" waitingTime="8.25"/>
    </personinfo>
    <personinfo id="pf_1.6" depart="216.00" type="ped" speedFactor="1.05" duration="118.00" waitingTime="0.00" timeLoss="13.74" traveltime="118.00">
        <walk depart="216.00" departPos="25.00" arrival="334.00" arrivalPos="7.46" duration="118.00" routeLength="151.44" timeLoss="13.74" maxSpeed="1.45" waitingTime="0.00"/>
    </personinfo>
    <tripinfo id="B2_1.3" depart="198.55" departLane="-361257727#0_1" departPos="5.10" departPosLat="0.00" departSpeed="6.34" departDelay="0.00" arrival="368.20" arrivalLane="-440471861#0_1" arrivalPos="31.49" arrivalPosLat="0.00" arrivalSpeed="21.14" duration="169.65" routeLength="1414.29" waitingTime="6.50" waitingCount="1" stopTime="0.00" timeLoss="13.28" rerouteNo="1" devices="tripinfo_B2_1.3 routing_B2_1.3" vType="car" speedFactor="0.76" vaporized=""/>
    <tripinfo id="B3_1.0" depart="241.30" departLane="-361257727#0_1" departPos="12.10" departPosLat="0.00" departSpeed="8.33" departDelay="0.00" arrival="370.85" arrivalLane="-140483224#1_2" arrivalPos="64.17" arrivalPosLat="0.00" arrivalSpeed="27.77" duration="129.55" routeLength="1420.11" waitingTime="0.00" waitingCount="0" stopTime="0.00" timeLoss="11.19" rerouteNo="1" devices="tripinfo_B3_1.0 routing_B3_1.0" vType="bus" speedFactor="1.00" vaporized=""/>
    <tripinfo id="C3_1.4" depart="308.85" departLane="440471861#0_1" departPos="5.10" departPosLat="0.00" departSpeed="26.59" departDelay="0.00" arrival="381.50" arrivalLane="-140483224#1_1" arrivalPos="64.17" arrivalPosLat="-0.00" arrivalSpeed="26.58" duration="72.65" routeLength="1053.95" waitingTime="17.35" waitingCount="1" stopTime="0.00" timeLoss="31.82" rerouteNo="1" devices="tripinfo_C3_1.4 routing_C3_1.4" vType="car" speedFactor="0.96" vaporized=""/>
    <tripinfo id="A2_1.2" depart="337.55" departLane="-793339796#2_1" departPos="2.30" departPosLat="0.00" departSpeed="35.06" departDelay="0.00" arrival="396.95" arrivalLane="-440471861#0_1" arrivalPos="31.49" arrivalPosLat="0.00" arrivalSpeed="35.00" duration="59.40" routeLength="1084.69" waitingTime="22.45" waitingCount="1" stopTime="0.00" timeLoss="28.42" rerouteNo="1" devices="tripinfo_A2_1.2 routing_A2_1.2" vType="motorcycle" speedFactor="1.26" vaporized=""/>
    <tripinfo id="A1_1.4" depart="277.50" departLane="-793339796#2_1" departPos="5.10" departPosLat="0.00" departSpeed="19.69" departDelay="0.00" arrival="406.55" arrivalLane="-145894807#0_1" arrivalPos="260.97" arrivalPosLat="0.00" arrivalSpeed="5.89" duration="129.05" routeLength="1057.45" waitingTime="0.00" waitingCount="0" stopTime="0.00" timeLoss="2.79" rerouteNo="1" devices="tripinfo_A1_1.4 routing_A1_1.4" vType="car" speedFactor="0.71" vaporized=""/>
    <tripinfo id="A1_1.5" depart="322.60" departLane="-793339796#2_1" departPos="12.10" departPosLat="0.00" departSpeed="27.78" departDelay="0.00" arrival="416.70" arrivalLane="-145894807#0_1" arrivalPos="260.97" arrivalPosLat="0.00" arrivalSpeed="8.32" duration="94.10" routeLength="1050.45" waitingTime="0.00" waitingCount="0" stopTime="0.00" timeLoss="4.80" rerouteNo="1" devices="tripinfo_A1_1.5 routing_A1_1.5" vType="bus" speedFactor="1.00" vaporized=""/>
    <tripinfo id="A1_1.6" depart="329.65" departLane="-793339796#2_1" departPos="8.10" departPosLat="0.00" departSpeed="26.12" departDelay="0.00" arrival="428.15" arrivalLane="-145894807#0_1" arrivalPos="260.97" arrivalPosLat="0.00" arrivalSpeed="7.78" duration="98.50" routeLength="1054.45" waitingTime="0.00" waitingCount="0" stopTime="0.00" timeLoss="3.40" rerouteNo="1" devices="tripinfo_A1_1.6 routing_A1_1.6" vType="jeep" speedFactor="0.94" vaporized=""/>
    <personinfo id="pf_1.8" depart="288.00" type="ped" speedFactor="0.94" duration="140.50" waitingTime="11.35" timeLoss="24.24" traveltime="140.50">
        <walk depart="288.00" departPos="25.00" arrival="428.50" arrivalPos="7.46" duration="140.50" routeLength="151.44" timeLoss="24.24" maxSpeed="1.30" waitingTime="11.35"/>
    </personinfo>
    <tripinfo id="C2_1.2" depart="289.65" departLane="440471861#0_2" departPos="5.10" departPosLat="0.00" departSpeed="31.01" departDelay="0.00" arrival="430.20" arrivalLane="-145894807#0_1" arrivalPos="260.97" arrivalPosLat="0.00" arrivalSpeed="9.30" duration="140.55" routeLength="1099.91" waitingTime="43.30" waitingCount="2" stopTime="0.00" timeLoss="62.29" rerouteNo="1" devices="tripinfo_C2_1.2 routing_C2_1.2" vType="car" speedFactor="1.12" vaporized=""/>
    <personinfo id="pf_1.7" depart="252.00" type="ped" speedFactor="0.89" duration="179.00" waitingTime="42.30" timeLoss="55.93" traveltime="179.00">
        <walk depart="252.00" departPos="25.00" arrival="431.00" arrivalPos="7.46" duration="179.00" routeLength="151.44" timeLoss="55.93" maxSpeed="1.23" waitingTime="42.30"/>
    </personinfo>
    <tripinfo id="A1_1.7" depart="342.40" departLane="-793339796#2_1" departPos="2.30" departPosLat="0.00" departSpeed="25.75" departDelay="0.00" arrival="441.25" arrivalLane="-145894807#0_1" arrivalPos="260.97" arrivalPosLat="0.00" arrivalSpeed="7.68" duration="98.85" routeLength="1060.25" waitingTime="0.00" waitingCount="0" stopTime="0.00" timeLoss="2.19" rerouteNo="1" devices="tripinfo_A1_1.7 routing_A1_1.7" vType="tricycle" speedFactor="0.93" vaporized=""/>
    <tripinfo id="D2_1.0" depart="290.30" departLane="140483224#1_1" departPos="8.10" departPosLat="0.00" departSpeed="31.44" departDelay="0.00" arrival="443.05" arrivalLane="-145894807#0_1" arrivalPos="260.97" arrivalPosLat="0.00" arrivalSpeed="9.38" duration="152.75" routeLength="1106.87" waitingTime="39.10" waitingCount="3" stopTime="0.00" timeLoss="75.69" rerouteNo="1" devices="tripinfo_D2_1.0 routing_D2_1.0" vType="jeep" speedFactor="1.13" vaporized=""/>
    <tripinfo id="D3_1.3" depart="358.75" departLane="140483224#1_1" departPos="2.30" departPosLat="0.00" departSpeed="24.08" departDelay="0.00" arrival="444.35" arrivalLane="-440471861#0_2" arrivalPos="31.49" arrivalPosLat="0.00" arrivalSpeed="23.93" duration="85.60" routeLength="1071.91" waitingTime="36.00" waitingCount="1" stopTime="0.00" timeLoss="39.38" rerouteNo="1" devices="tripinfo_D3_1.3 routing_D3_1.3" vType="motorcycle" speedFactor="0.87" vaporized=""/>
    <tripinfo id="C1_1.2" depart="288.55" departLane="440471861#0_1" departPos="8.10" departPosLat="0.00" departSpeed="28.18" departDelay="0.00" arrival="445.30" arrivalLane="-793339796#2_2" arrivalPos="83.13" arrivalPosLat="0.00" arrivalSpeed="28.17" duration="156.75" routeLength="1651.03" waitingTime="72.05" waitingCount="2" stopTime="0.00" timeLoss="97.06" rerouteNo="1" devices="tripinfo_C1_1.2 routing_C1_1.2" vType="jeep" speedFactor="1.01" vaporized=""/>
    <tripinfo id="D3_1.4" depart="380.35" departLane="140483224#1_2" departPos="8.10" departPosLat="0.00" departSpeed="24.53" departDelay="0.00" arrival="448.70" arrivalLane="-440471861#0_2" arrivalPos="31.49" arrivalPosLat="0.00" arrivalSpeed="24.48" duration="68.35" routeLength="1066.11" waitingTime="10.20" waitingCount="2" stopTime="0.00" timeLoss="23.22" rerouteNo="1" devices="tripinfo_D3_1.4 routing_D3_1.4" vType="jeep" speedFactor="0.88" vaporized=""/>
    <tripinfo id="C1_1.3" depart="324.05" departLane="440471861#0_1" departPos="5.10" departPosLat="0.00" departSpeed="26.79" departDelay="0.00" arrival="449.45" arrivalLane="-793339796#2_2" arrivalPos="83.13" arrivalPosLat="0.00" arrivalSpeed="26.73" duration="125.40" routeLength="1654.03" waitingTime="29.30" waitingCount="2" stopTime="0.00" timeLoss="62.54" rerouteNo="1" devices="tripinfo_C1_1.3 routing_C1_1.3" vType="car" speedFactor="0.96" vaporized=""/>
    <tripinfo id="D1_1.6" depart="284.85" departLane="140483224#1_1" departPos="5.10" departPosLat="0.00" departSpeed="29.54" departDelay="0.00" arrival="451.90" arrivalLane="-793339796#2_2" arrivalPos="83.13" arrivalPosLat="0.00" arrivalSpeed="29.53" duration="167.05" routeLength="1648.47" waitingTime="68.60" waitingCount="3" stopTime="0.00" timeLoss="109.02" rerouteNo="1" devices="tripinfo_D1_1.6 routing_D1_1.6" vType="car" speedFactor="1.06" vaporized=""/>
    <personinfo id="pf_1.9" depart="324.00" type="ped" speedFactor="0.86" duration="141.25" waitingTime="0.00" timeLoss="14.01" traveltime="141.25">
        <walk depart="324.00" departPos="25.00" arrival="465.25" arrivalPos="7.46" duration="141.25" routeLength="151.44" timeLoss="14.01" maxSpeed="1.19" waitingTime="0.00"/>
    </personinfo>
    <personinfo id="pf_1.10" depart="360.00" type="ped" speedFactor="1.09" duration="111.30" waitingTime="0.00" timeLoss="11.33" traveltime="111.30">
        <walk depart="360.00" departPos="25.00" arrival="471.30" arrivalPos="7.46" duration="111.30" routeLength="151.44" timeLoss="11.33" maxSpeed="1.51" waitingTime="0.00"/>
    </personinfo>
    <tripinfo id="A1_1.8" depart="383.20" departLane="-793339796#2_1" departPos="7.20" departPosLat="0.00" departSpeed="27.02" departDelay="0.00" arrival="479.70" arrivalLane="-145894807#0_1" arrivalPos="260.97" arrivalPosLat="0.00" arrivalSpeed="8.08" duration="96.50" routeLength="1055.35" waitingTime="0.00" waitingCount="0" stopTime="0.00" timeLoss="4.54" rerouteNo="1" devices="tripinfo_A1_1.8 routing_A1_1.8" vType="truck" speedFactor="0.97" vaporized=""/>
    <tripinfo id="D1_1.7" depart="370.50" departLane="140483224#1_1" departPos="2.30" departPosLat="0.00" departSpeed="26.75" departDelay="0.00" arrival="489.15" arrivalLane="-793339796#2_1" arrivalPos="83.13" arrivalPosLat="0.00" arrivalSpeed="26.73" duration="118.65" routeLength="1651.27" waitingTime="25.75" waitingCount="3" stopTime="0.00" timeLoss="54.50" rerouteNo="1" devices="tripinfo_D1_1.7 routing_D1_1.7" vType="tricycle" speedFactor="0.96" vaporized=""/>
    <tripinfo id="C2_1.3" depart="379.20" departLane="440471861#0_2" departPos="5.10" departPosLat="0.00" departSpeed="23.74" departDelay="0.00" arrival="491.55" arrivalLane="-145894807#0_1" arrivalPos="260.97" arrivalPosLat="0.00" arrivalSpeed="7.09" duration="112.35" routeLength="1099.91" waitingTime="4.15" waitingCount="1" stopTime="0.00" timeLoss="10.19" rerouteNo="1" devices="tripinfo_C2_1.3 routing_C2_1.3" vType="car" speedFactor="0.85" vaporized=""/>
    <tripinfo id="B2_1.4" depart="306.80" departLane="-361257727#0_1" departPos="8.10" departPosLat="0.00" departSpeed="8.30" departDelay="0.00" arrival="499.55" arrivalLane="-440471861#0_1" arrivalPos="31.49" arrivalPosLat="0.00" arrivalSpeed="27.65" duration="192.75" routeLength="1411.29" waitingTime="64.50" waitingCount="1" stopTime="0.00" timeLoss="73.73" rerouteNo="1" devices="tripinfo_B2_1.4 routing_B2_1.4" vType="jeep" speedFactor="1.00" vaporized=""/>
    <tripinfo id="A1_1.9" depart="411.25" departLane="-793339796#2_1" departPos="2.30" departPosLat="0.00" departSpeed="28.30" departDelay="0.00" arrival="501.25" arrivalLane="-145894807#0_1" arrivalPos="260.97" arrivalPosLat="0.00" arrivalSpeed="8.35" duration="90.00" routeLength="1060.25" waitingTime="0.00" waitingCount="0" stopTime="0.00" timeLoss="2.04" rerouteNo="1" devices="tripinfo_A1_1.9 routing_A1_1.9" vType="motorcycle" speedFactor="1.02" vaporized=""/>
    <personinfo id="pf_1.11" depart="396.00" type="ped" speedFactor="1.03" duration="117.75" waitingTime="0.00" timeLoss="11.51" traveltime="117.75">
        <walk depart="396.00" departPos="25.00" arrival="513.75" arrivalPos="7.46" duration="117.75" routeLength="151.44" timeLoss="11.51" maxSpeed="1.43" waitingTime="0.00"/>
    </personinfo>
    <tripinfo id="B2_1.5" depart="411.55" departLane="-361257727#0_1" departPos="5.10" departPosLat="0.00" departSpeed="9.66" departDelay="0.00" arrival="520.45" arrivalLane="-440471861#0_1" arrivalPos="31.49" arrivalPosLat="0.00" arrivalSpeed="32.17" duration="108.90" routeLength="1414.29" waitingTime="0.00" waitingCount="0" stopTime="0.00" timeLoss="6.30" rerouteNo="1" devices="tripinfo_B2_1.5 routing_B2_1.5" vType="car" speedFactor="1.16" vaporized=""/>