<?xml version="1.0" encoding="UTF-8"?>

<!-- generated on 2025-11-10 17:38:26 by Eclipse SUMO sumo Version 1.24.0
<sumoConfiguration xmlns:xsi="http://www.w3.org/2001/XMLSchema-instance" xsi:noNamespaceSchemaLocation="http://sumo.dlr.de/xsd/sumoConfiguration.xsd">

    <input>
        <net-file value="Olivarez_traci\network/map.net.xml"/>
        <route-files value="Olivarez_traci\demand/demand.rou.xml"/>
        <additional-files value="Olivarez_traci\additionals/map.poly.xml,Olivarez_traci\ additionals/detectors.add.xml"/>
    </input>

    <output>
        <tripinfo-output value="Olivarez_traci\output_DQN\SD_DQN_trips.xml"/>
        <statistic-output value="Olivarez_traci\output_DQN\SD_DQN_stats.xml"/>
    </output>

    <time>
        <begin value="0"/>
        <end value="10000"/>
        <step-length value="0.05"/>
    </time>

    <processing>
        <lateral-resolution value="0.1"/>
        <collision.action value="none"/>
        <collision.check-junctions value="false"/>
        <collision.mingap-factor value="0"/>
    </processing>

    <report>
        <no-warnings value="true"/>
    </report>

    <traci_server>
        <remote-port value="50017"/>
    </traci_server>

    <gui_only>
        <delay value="0"/>
    </gui_only>

</sumoConfiguration>
-->

<tripinfos xmlns:xsi="http://www.w3.org/2001/XMLSchema-instance" xsi:noNamespaceSchemaLocation="http://sumo.dlr.de/xsd/tripinfo_file.xsd">
    <tripinfo id="D3_1.0" depart="7.65" departLane="140483224#1_2" departPos="5.10" departPosLat="0.00" departSpeed="27.15" departDelay="0.00" arrival="52.95" arrivalLane="-440471861#0_2" arrivalPos="31.49" arrivalPosLat="0.00" arrivalSpeed="27.10" duration="45.30" routeLength="1069.11" waitingTime="0.00" waitingCount="0" stopTime="0.00" timeLoss="4.47" rerouteNo="1" devices="tripinfo_D3_1.0 routing_D3_1.0" vType="car" speedFactor="0.98" vaporized=""/>
    <tripinfo id="A2_1.0" depart="4.45" departLane="-793339796#2_1" departPos="5.10" departPosLat="0.00" departSpeed="28.74" departDelay="0.00" arrival="61.20" arrivalLane="-440471861#0_1" arrivalPos="31.49" arrivalPosLat="0.00" arrivalSpeed="28.70" duration="56.75" routeLength="1081.89" waitingTime="8.80" waitingCount="1" stopTime="0.00" timeLoss="19.10" rerouteNo="1" devices="tripinfo_A2_1.0 routing_A2_1.0" vType="car" speedFactor="1.03" vaporized=""/>
    <tripinfo id="D1_1.0" depart="0.60" departLane="140483224#1_1" departPos="7.20" departPosLat="0.00" departSpeed="28.84" departDelay="0.00" arrival="83.25" arrivalLane="-793339796#2_2" arrivalPos="83.13" arrivalPosLat="0.00" arrivalSpeed="25.50" duration="82.65" routeLength="1646.37" waitingTime="0.00" waitingCount="0" stopTime="0.00" timeLoss="23.32" rerouteNo="1" devices="tripinfo_D1_1.0 routing_D1_1.0" vType="truck" speedFactor="1.04" vaporized=""/>
    <personinfo id="pf_1.0" depart="0.00" type="ped" speedFactor="1.06" duration="128.10" waitingTime="13.90" timeLoss="25.24" traveltime="128.10">
        <walk depart="0.00" departPos="25.00" arrival="128.10" arrivalPos="7.46" duration="128.10" routeLength="151.44" timeLoss="25.24" maxSpeed="1.47" waitingTime="13.90"/>
    </personinfo>
    <tripinfo id="B2_1.0" depart="31.00" departLane="-361257727#0_1" departPos="5.10" departPosLat="0.00" departSpeed="10.40" departDelay="0.00" arrival="133.30" arrivalLane="-440471861#0_1" arrivalPos="31.49" arrivalPosLat="0.00" arrivalSpeed="34.64" duration="102.30" routeLength="1414.29" waitingTime="0.00" waitingCount="0" stopTime="0.00" timeLoss="6.92" rerouteNo="1" devices="tripinfo_B2_1.0 routing_B2_1.0" vType="car" speedFactor="1.25" vaporized=""/>
    <personinfo id="pf_1.1" depart="36.00" type="ped" speedFactor="0.94" duration="128.85" waitingTime="0.00" timeLoss="12.64" traveltime="128.85">
        <walk depart="36.00" departPos="25.00" arrival="164.85" arrivalPos="7.46" duration="128.85" routeLength="151.44" timeLoss="12.64" maxSpeed="1.30" waitingTime="0.00"/>
    </personinfo>
    <tripinfo id="C3_1.0" depart="43.55" departLane="440471861#0_1" departPos="5.10" departPosLat="0.00" departSpeed="26.96" departDelay="0.00" arrival="168.75" arrivalLane="-140483224#1_1" arrivalPos="64.17" arrivalPosLat="-0.00" arrivalSpeed="26.93" duration="125.20" routeLength="1053.95" waitingTime="70.45" waitingCount="1" stopTime="0.00" timeLoss="84.90" rerouteNo="1" devices="tripinfo_C3_1.0 routing_C3_1.0" vType="car" speedFactor="0.97" vaporized=""/>
    <tripinfo id="C3_1.1" depart="78.25" departLane="440471861#0_1" departPos="2.30" departPosLat="0.00" departSpeed="26.15" departDelay="0.00" arrival="170.25" arrivalLane="-140483224#1_1" arrivalPos="64.17" arrivalPosLat="-0.00" arrivalSpeed="26.11" duration="92.00" routeLength="1056.75" waitingTime="37.35" waitingCount="1" stopTime="0.00" timeLoss="50.38" rerouteNo="1" devices="tripinfo_C3_1.1 routing_C3_1.1" vType="motorcycle" speedFactor="0.94" vaporized=""/>
    <tripinfo id="A1_1.0" depart="78.95" departLane="-793339796#2_1" departPos="7.20" departPosLat="0.00" departSpeed="28.23" departDelay="0.00" arrival="171.70" arrivalLane="-145894807#0_1" arrivalPos="260.97" arrivalPosLat="0.00" arrivalSpeed="8.44" duration="92.75" routeLength="1055.35" waitingTime="0.00" waitingCount="0" stopTime="0.00" timeLoss="4.75" rerouteNo="1" devices="tripinfo_A1_1.0 routing_A1_1.0" vType="truck" speedFactor="1.02" vaporized=""/>
    <tripinfo id="B1_1.0" depart="37.80" departLane="-361257727#0_1" departPos="2.30" departPosLat="0.00" departSpeed="8.51" departDelay="0.00" arrival="176.50" arrivalLane="-793339796#2_2" arrivalPos="83.13" arrivalPosLat="0.00" arrivalSpeed="28.24" duration="138.70" routeLength="1918.42" waitingTime="0.00" waitingCount="0" stopTime="0.00" timeLoss="6.45" rerouteNo="1" devices="tripinfo_B1_1.0 routing_B1_1.0" vType="motorcycle" speedFactor="1.02" vaporized=""/>
    <personinfo id="pf_1.2" depart="72.00" type="ped" speedFactor="1.01" duration="128.15" waitingTime="8.30" timeLoss="20.24" traveltime="128.15">
        <walk depart="72.00" departPos="25.00" arrival="200.15" arrivalPos="7.46" duration="128.15" routeLength="151.44" timeLoss="20.24" maxSpeed="1.40" waitingTime="8.30"/>
    </personinfo>
    <tripinfo id="D3_1.1" depart="100.85" departLane="140483224#1_2" departPos="5.10" departPosLat="0.00" departSpeed="28.43" departDelay="0.00" arrival="206.35" arrivalLane="-440471861#0_2" arrivalPos="31.49" arrivalPosLat="0.00" arrivalSpeed="28.37" duration="105.50" routeLength="1069.11" waitingTime="52.05" waitingCount="2" stopTime="0.00" timeLoss="66.48" rerouteNo="1" devices="tripinfo_D3_1.1 routing_D3_1.1" vType="car" speedFactor="1.02" vaporized=""/>
    <tripinfo id="C2_1.0" depart="20.15" departLane="440471861#0_2" departPos="2.30" departPosLat="0.00" departSpeed="29.58" departDelay="0.00" arrival="206.80" arrivalLane="-145894807#0_1" arrivalPos="260.97" arrivalPosLat="0.00" arrivalSpeed="8.86" duration="186.65" routeLength="1102.71" waitingTime="100.85" waitingCount="1" stopTime="0.00" timeLoss="104.56" rerouteNo="1" devices="tripinfo_C2_1.0 routing_C2_1.0" vType="motorcycle" speedFactor="1.06" vaporized=""/>
    <tripinfo id="C1_1.0" depart="31.85" departLane="440471861#0_1" departPos="5.10" departPosLat="0.00" departSpeed="24.05" departDelay="0.00" arrival="207.00" arrivalLane="-793339796#2_2" arrivalPos="83.13" arrivalPosLat="-0.00" arrivalSpeed="24.04" duration="175.15" routeLength="1654.03" waitingTime="89.90" waitingCount="2" stopTime="0.00" timeLoss="105.18" rerouteNo="1" devices="tripinfo_C1_1.0 routing_C1_1.0" vType="car" speedFactor="0.87" vaporized=""/>
    <tripinfo id="C1_1.1" depart="41.05" departLane="440471861#0_1" departPos="5.10" departPosLat="0.00" departSpeed="30.46" departDelay="0.00" arrival="213.25" arrivalLane="-793339796#2_2" arrivalPos="83.13" arrivalPosLat="0.00" arrivalSpeed="30.42" duration="172.20" routeLength="1654.03" waitingTime="83.90" waitingCount="2" stopTime="0.00" timeLoss="116.86" rerouteNo="1" devices="tripinfo_C1_1.1 routing_C1_1.1" vType="car" speedFactor="1.10" vaporized=""/>
    <personinfo id="pf_1.3" depart="108.00" type="ped" speedFactor="1.08" duration="112.15" waitingTime="0.00" timeLoss="11.44" traveltime="112.15">
        <walk depart="108.00" departPos="25.00" arrival="220.15" arrivalPos="7.46" duration="112.15" routeLength="151.44" timeLoss="11.44" maxSpeed="1.50" waitingTime="0.00"/>
    </personinfo>
    <tripinfo id="A1_1.1" depart="125.65" departLane="-793339796#2_1" departPos="2.30" departPosLat="0.00" departSpeed="25.79" departDelay="0.00" arrival="224.35" arrivalLane="-145894807#0_1" arrivalPos="260.97" arrivalPosLat="0.00" arrivalSpeed="7.63" duration="98.70" routeLength="1060.25" waitingTime="0.00" waitingCount="0" stopTime="0.00" timeLoss="2.11" rerouteNo="1" devices="tripinfo_A1_1.1 routing_A1_1.1" vType="motorcycle" speedFactor="0.93" vaporized=""/>
    <tripinfo id="A1_1.2" depart="154.60" departLane="-793339796#2_1" departPos="2.30" departPosLat="0.00" departSpeed="30.64" departDelay="0.00" arrival="238.45" arrivalLane="-145894807#0_1" arrivalPos="260.97" arrivalPosLat="0.00" arrivalSpeed="9.16" duration="83.85" routeLength="1060.25" waitingTime="0.00" waitingCount="0" stopTime="0.00" timeLoss="2.55" rerouteNo="1" devices="tripinfo_A1_1.2 routing_A1_1.2" vType="tricycle" speedFactor="1.10" vaporized=""/>
    <tripinfo id="A3_1.0" depart="107.30" departLane="-793339796#2_1" departPos="12.10" departPosLat="0.00" departSpeed="27.78" departDelay="0.00" arrival="240.05" arrivalLane="-140483224#1_2" arrivalPos="64.17" arrivalPosLat="0.00" arrivalSpeed="27.78" duration="132.75" routeLength="1074.73" waitingTime="66.80" waitingCount="2" stopTime="0.00" timeLoss="92.59" rerouteNo="1" devices="tripinfo_A3_1.0 routing_A3_1.0" vType="bus" speedFactor="1.00" vaporized=""/>
    <tripinfo id="D1_1.2" depart="58.55" departLane="140483224#1_1" departPos="5.10" departPosLat="0.00" departSpeed="31.42" departDelay="0.00" arrival="247.15" arrivalLane="-793339796#2_2" arrivalPos="83.13" arrivalPosLat="0.00" arrivalSpeed="31.39" duration="188.60" routeLength="1648.47" waitingTime="101.75" waitingCount="2" stopTime="0.00" timeLoss="134.05" rerouteNo="1" devices="tripinfo_D1_1.2 routing_D1_1.2" vType="car" speedFactor="1.13" vaporized=""/>
    <tripinfo id="D1_1.4" depart="178.90" departLane="140483224#1_1" departPos="2.30" departPosLat="0.00" departSpeed="28.77" departDelay="0.00" arrival="248.50" arrivalLane="-793339796#2_2" arrivalPos="83.13" arrivalPosLat="0.00" arrivalSpeed="28.77" duration="69.60" routeLength="1651.27" waitingTime="0.00" waitingCount="0" stopTime="0.00" timeLoss="9.96" rerouteNo="1" devices="tripinfo_D1_1.4 routing_D1_1.4" vType="motorcycle" speedFactor="1.04" vaporized=""/>
    <tripinfo id="D1_1.1" depart="46.15" departLane="140483224#1_1" departPos="2.30" departPosLat="0.00" departSpeed="32.70" departDelay="0.00" arrival="254.25" arrivalLane="-793339796#2_2" arrivalPos="83.13" arrivalPosLat="0.00" arrivalSpeed="31.58" duration="208.10" routeLength="1651.27" waitingTime="123.35" waitingCount="2" stopTime="0.00" timeLoss="155.60" rerouteNo="1" devices="tripinfo_D1_1.1 routing_D1_1.1" vType="tricycle" speedFactor="1.18" vaporized=""/>
    <tripinfo id="D1_1.3" depart="118.00" departLane="140483224#1_1" departPos="5.10" departPosLat="0.00" departSpeed="32.02" departDelay="0.00" arrival="256.50" arrivalLane="-793339796#2_2" arrivalPos="83.13" arrivalPosLat="0.00" arrivalSpeed="31.99" duration="138.50" routeLength="1648.47" waitingTime="44.55" waitingCount="3" stopTime="0.00" timeLoss="84.98" rerouteNo="1" devices="tripinfo_D1_1.3 routing_D1_1.3" vType="car" speedFactor="1.15" vaporized=""/>
    <personinfo id="pf_1.4" depart="144.00" type="ped" speedFactor="1.03" duration="117.65" waitingTime="0.00" timeLoss="11.82" traveltime="117.65">
        <walk depart="144.00" departPos="25.00" arrival="261.65" arrivalPos="7.46" duration="117.65" routeLength="151.44" timeLoss="11.82" maxSpeed="1.43" waitingTime="0.00"/>
    </personinfo>
    <tripinfo id="B2_1.1" depart="64.60" departLane="-361257727#0_1" departPos="5.10" departPosLat="0.00" departSpeed="8.26" departDelay="0.00" arrival="272.00" arrivalLane="-440471861#0_1" arrivalPos="31.49" arrivalPosLat="0.00" arrivalSpeed="27.52" duration="207.40" routeLength="1414.29" waitingTime="77.95" waitingCount="1" stopTime="0.00" timeLoss="87.35" rerouteNo="1" devices="tripinfo_B2_1.1 routing_B2_1.1" vType="car" speedFactor="0.99" vaporized=""/>
    <tripinfo id="B2_1.2" depart="75.15" departLane="-361257727#0_1" departPos="2.30" departPosLat="0.00" departSpeed="8.14" departDelay="0.00" arrival="275.00" arrivalLane="-440471861#0_1" arrivalPos="31.49" arrivalPosLat="0.00" arrivalSpeed="27.11" duration="199.85" routeLength="1417.09" waitingTime="64.50" waitingCount="1" stopTime="0.00" timeLoss="77.73" rerouteNo="1" devices="tripinfo_B2_1.2 routing_B2_1.2" vType="tricycle" speedFactor="0.98" vaporized=""/>
    <tripinfo id="C3_1.2" depart="161.95" departLane="440471861#0_1" departPos="2.30" departPosLat="0.00" departSpeed="23.25" departDelay="0.00" arrival="303.65" arrivalLane="-140483224#1_1" arrivalPos="64.17" arrivalPosLat="-0.00" arrivalSpeed="23.12" duration="141.70" routeLength="1056.75" waitingTime="89.55" waitingCount="1" stopTime="0.00" timeLoss="94.91" rerouteNo="1" devices="tripinfo_C3_1.2 routing_C3_1.2" vType="motorcycle" speedFactor="0.84" vaporized=""/>
    <tripinfo id="A3_1.1" depart="148.50" departLane="-793339796#2_2" departPos="8.10" departPosLat="0.00" departSpeed="31.07" departDelay="0.00" arrival="304.45" arrivalLane="-140483224#1_2" arrivalPos="64.17" arrivalPosLat="0.00" arrivalSpeed="31.04" duration="155.95" routeLength="1078.73" waitingTime="93.95" waitingCount="2" stopTime="0.00" timeLoss="119.88" rerouteNo="1" devices="tripinfo_A3_1.1 routing_A3_1.1" vType="jeep" speedFactor="1.12" vaporized=""/>
    <tripinfo id="C3_1.3" depart="180.75" departLane="440471861#0_1" departPos="5.10" departPosLat="0.00" departSpeed="28.11" departDelay="0.00" arrival="306.05" arrivalLane="-140483224#1_1" arrivalPos="64.17" arrivalPosLat="0.00" arrivalSpeed="27.82" duration="125.30" routeLength="1053.95" waitingTime="68.90" waitingCount="1" stopTime="0.00" timeLoss="86.65" rerouteNo="1" devices="tripinfo_C3_1.3 routing_C3_1.3" vType="car" speedFactor="1.01" vaporized=""/>
    <tripinfo id="A1_1.3" depart="222.65" departLane="-793339796#2_1" departPos="5.10" departPosLat="0.00" departSpeed="29.40" departDelay="0.00" arrival="311.05" arrivalLane="-145894807#0_1" arrivalPos="260.97" arrivalPosLat="0.00" arrivalSpeed="8.81" duration="88.40" routeLength="1057.45" waitingTime="0.00" waitingCount="0" stopTime="0.00" timeLoss="3.78" rerouteNo="1" devices="tripinfo_A1_1.3 routing_A1_1.3" vType="car" speedFactor="1.06" vaporized=""/>
    <tripinfo id="B1_1.1" depart="171.30" departLane="-361257727#0_1" departPos="5.10" departPosLat="0.00" departSpeed="8.64" departDelay="0.00" arrival="316.55" arrivalLane="-793339796#2_2" arrivalPos="83.13" arrivalPosLat="0.00" arrivalSpeed="28.78" duration="145.25" routeLength="1915.62" waitingTime="0.00" waitingCount="0" stopTime="0.00" timeLoss="15.41" rerouteNo="1" devices="tripinfo_B1_1.1 routing_B1_1.1" vType="car" speedFactor="1.04" vaporized=""/>
    <tripinfo id="C2_1.1" depart="161.10" departLane="440471861#0_2" departPos="5.10" departPosLat="0.00" departSpeed="28.67" departDelay="0.00" arrival="345.90" arrivalLane="-145894807#0_1" arrivalPos="260.97" arrivalPosLat="0.00" arrivalSpeed="8.57" duration="184.80" routeLength="1099.91" waitingTime="93.10" waitingCount="1" stopTime="0.00" timeLoss="100.18" rerouteNo="1" devices="tripinfo_C2_1.1 routing_C2_1.1" vType="car" speedFactor="1.03" vaporized=""/>
    <tripinfo id="C3_1.4" depart="308.85" departLane="440471861#0_1" departPos="5.10" departPosLat="0.00" departSpeed="32.75" departDelay="0.00" arrival="348.90" arrivalLane="-140483224#1_1" arrivalPos="64.17" arrivalPosLat="-0.00" arrivalSpeed="32.75" duration="40.05" routeLength="1053.95" waitingTime="0.00" waitingCount="0" stopTime="0.00" timeLoss="6.90" rerouteNo="1" devices="tripinfo_C3_1.4 routing_C3_1.4" vType="car" speedFactor="1.18" vaporized=""/>
    <tripinfo id="D3_1.2" depart="208.30" departLane="140483224#1_2" departPos="5.10" departPosLat="0.00" departSpeed="27.89" departDelay="0.00" arrival="356.90" arrivalLane="-440471861#0_2" arrivalPos="31.49" arrivalPosLat="0.00" arrivalSpeed="27.87" duration="148.60" routeLength="1069.11" waitingTime="94.70" waitingCount="2" stopTime="0.00" timeLoss="108.80" rerouteNo="1" devices="tripinfo_D3_1.2 routing_D3_1.2" vType="car" speedFactor="1.00" vaporized=""/>
    <personinfo id="pf_1.6" depart="216.00" type="ped" speedFactor="1.05" duration="163.10" waitingTime="47.25" timeLoss="58.84" traveltime="163.10">
        <walk depart="216.00" departPos="25.00" arrival="379.10" arrivalPos="7.46" duration="163.10" routeLength="151.44" timeLoss="58.84" maxSpeed="1.45" waitingTime="47.25"/>
    </personinfo>
    <tripinfo id="A2_1.1" depart="261.45" departLane="-793339796#2_1" departPos="8.10" departPosLat="0.00" departSpeed="33.69" departDelay="0.00" arrival="380.15" arrivalLane="-440471861#0_1" arrivalPos="31.49" arrivalPosLat="0.00" arrivalSpeed="33.66" duration="118.70" routeLength="1078.89" waitingTime="67.40" waitingCount="2" stopTime="0.00" timeLoss="86.65" rerouteNo="1" devices="tripinfo_A2_1.1 routing_A2_1.1" vType="jeep" speedFactor="1.21" vaporized=""/>
    <tripinfo id="A1_1.4" depart="277.50" departLane="-793339796#2_1" departPos="8.10" departPosLat="0.00" departSpeed="24.64" departDelay="0.00" arrival="381.55" arrivalLane="-145894807#0_1" arrivalPos="260.97" arrivalPosLat="0.00" arrivalSpeed="7.36" duration="104.05" routeLength="1054.45" waitingTime="0.00" waitingCount="0" stopTime="0.00" timeLoss="3.19" rerouteNo="1" devices="tripinfo_A1_1.4 routing_A1_1.4" vType="jeep" speedFactor="0.89" vaporized=""/>
    <tripinfo id="A2_1.2" depart="337.55" departLane="-793339796#2_1" departPos="5.10" departPosLat="0.00" departSpeed="24.41" departDelay="0.00" arrival="385.35" arrivalLane="-440471861#0_1" arrivalPos="31.49" arrivalPosLat="0.00" arrivalSpeed="24.40" duration="47.80" routeLength="1081.89" waitingTime="0.00" waitingCount="0" stopTime="0.00" timeLoss="3.43" rerouteNo="1" devices="tripinfo_A2_1.2 routing_A2_1.2" vType="car" speedFactor="0.88" vaporized=""/>
    <tripinfo id="C2_1.2" depart="289.65" departLane="440471861#0_2" departPos="5.10" departPosLat="0.00" departSpeed="26.12" departDelay="0.00" arrival="388.60" arrivalLane="-145894807#0_1" arrivalPos="260.97" arrivalPosLat="0.00" arrivalSpeed="7.81" duration="98.95" routeLength="1099.91" waitingTime="1.65" waitingCount="1" stopTime="0.00" timeLoss="6.09" rerouteNo="1" devices="tripinfo_C2_1.2 routing_C2_1.2" vType="car" speedFactor="0.94" vaporized=""/>
    <personinfo id="pf_1.5" depart="180.00" type="ped" speedFactor="0.83" duration="209.15" waitingTime="63.30" timeLoss="77.94" traveltime="209.15">
        <walk depart="180.00" departPos="25.00" arrival="389.15" arrivalPos="7.46" duration="209.15" routeLength="151.44" timeLoss="77.94" maxSpeed="1.15" waitingTime="63.30"/>
    </personinfo>
    <personinfo id="pf_1.7" depart="252.00" type="ped" speedFactor="0.89" duration="137.60" waitingTime="0.40" timeLoss="14.53" traveltime="137.60">
        <walk depart="252.00" departPos="25.00" arrival="389.60" arrivalPos="7.46" duration="137.60" routeLength="151.44" timeLoss="14.53" maxSpeed="1.23" waitingTime="0.40"/>
    </personinfo>
    <tripinfo id="D2_1.0" depart="290.30" departLane="140483224#1_1" departPos="5.10" departPosLat="0.00" departSpeed="29.76" departDelay="0.00" arrival="402.45" arrivalLane="-145894807#0_1" arrivalPos="260.97" arrivalPosLat="0.00" arrivalSpeed="8.92" duration="112.15" routeLength="1109.87" waitingTime="19.85" waitingCount="1" stopTime="0.00" timeLoss="30.64" rerouteNo="1" devices="tripinfo_D2_1.0 routing_D2_1.0" vType="car" speedFactor="1.07" vaporized=""/>
    <tripinfo id="D1_1.5" depart="226.35" departLane="140483224#1_1" departPos="5.10" departPosLat="0.00" departSpeed="30.94" departDelay="0.00" arrival="408.00" arrivalLane="-793339796#2_2" arrivalPos="83.13" arrivalPosLat="0.00" arrivalSpeed="30.93" duration="181.65" routeLength="1648.47" waitingTime="93.75" waitingCount="3" stopTime="0.00" timeLoss="126.23" rerouteNo="1" devices="tripinfo_D1_1.5 routing_D1_1.5" vType="car" speedFactor="1.11" vaporized=""/>
    <tripinfo id="B2_1.3" depart="198.55" departLane="-361257727#0_1" departPos="7.20" departPosLat="0.00" departSpeed="8.14" departDelay="0.00" arrival="409.30" arrivalLane="-440471861#0_2" arrivalPos="31.49" arrivalPosLat="0.00" arrivalSpeed="27.13" duration="210.75" routeLength="1412.19" waitingTime="71.95" waitingCount="1" stopTime="0.00" timeLoss="89.25" rerouteNo="1" devices="tripinfo_B2_1.3 routing_B2_1.3" vType="truck" speedFactor="0.98" vaporized=""/>
    <tripinfo id="B3_1.0" depart="241.30" departLane="-361257727#0_1" departPos="2.30" departPosLat="0.00" departSpeed="9.40" departDelay="0.00" arrival="409.95" arrivalLane="-140483224#1_1" arrivalPos="64.17" arrivalPosLat="0.00" arrivalSpeed="31.25" duration="168.65" routeLength="1429.91" waitingTime="46.80" waitingCount="2" stopTime="0.00" timeLoss="62.78" rerouteNo="1" devices="tripinfo_B3_1.0 routing_B3_1.0" vType="motorcycle" speedFactor="1.13" vaporized=""/>
    <tripinfo id="C1_1.2" depart="288.55" departLane="440471861#0_1" departPos="2.30" departPosLat="0.00" departSpeed="28.89" departDelay="0.00" arrival="413.40" arrivalLane="-793339796#2_2" arrivalPos="83.13" arrivalPosLat="0.00" arrivalSpeed="28.87" duration="124.85" routeLength="1656.83" waitingTime="45.55" waitingCount="1" stopTime="0.00" timeLoss="66.42" rerouteNo="1" devices="tripinfo_C1_1.2 routing_C1_1.2" vType="tricycle" speedFactor="1.04" vaporized=""/>
    <tripinfo id="A1_1.5" depart="322.60" departLane="-793339796#2_1" departPos="2.30" departPosLat="0.00" departSpeed="27.97" departDelay="0.00" arrival="414.00" arrivalLane="-145894807#0_1" arrivalPos="260.97" arrivalPosLat="0.00" arrivalSpeed="8.35" duration="91.40" routeLength="1060.25" waitingTime="0.00" waitingCount="0" stopTime="0.00" timeLoss="2.37" rerouteNo="1" devices="tripinfo_A1_1.5 routing_A1_1.5" vType="tricycle" speedFactor="1.01" vaporized=""/>
    <tripinfo id="D1_1.6" depart="284.85" departLane="140483224#1_1" departPos="8.10" departPosLat="0.00" departSpeed="26.82" departDelay="0.00" arrival="416.65" arrivalLane="-793339796#2_2" arrivalPos="83.13" arrivalPosLat="0.00" arrivalSpeed="26.81" duration="131.80" routeLength="1645.47" waitingTime="35.60" waitingCount="2" stopTime="0.00" timeLoss="68.03" rerouteNo="1" devices="tripinfo_D1_1.6 routing_D1_1.6" vType="jeep" speedFactor="0.97" vaporized=""/>
    <personinfo id="pf_1.8" depart="288.00" type="ped" speedFactor="0.94" duration="129.10" waitingTime="0.00" timeLoss="12.84" traveltime="129.10">
        <walk depart="288.00" departPos="25.00" arrival="417.10" arrivalPos="7.46" duration="129.10" routeLength="151.44" timeLoss="12.84" maxSpeed="1.30" waitingTime="0.00"/>
    </personinfo>
    <tripinfo id="A1_1.6" depart="329.65" departLane="-793339796#2_1" departPos="2.30" departPosLat="0.00" departSpeed="27.66" departDelay="0.00" arrival="421.70" arrivalLane="-145894807#0_1" arrivalPos="260.97" arrivalPosLat="0.00" arrivalSpeed="8.15" duration="92.05" routeLength="1060.25" waitingTime="0.00" waitingCount="0" stopTime="0.00" timeLoss="2.01" rerouteNo="1" devices="tripinfo_A1_1.6 routing_A1_1.6" vType="motorcycle" speedFactor="1.00" vaporized=""/>
    <tripinfo id="A3_1.2" depart="227.15" departLane="-793339796#2_1" departPos="7.20" departPosLat="0.00" departSpeed="27.98" departDelay="0.00" arrival="422.60" arrivalLane="-140483224#1_2" arrivalPos="64.17" arrivalPosLat="0.00" arrivalSpeed="27.96" duration="195.45" routeLength="1079.63" waitingTime="121.45" waitingCount="3" stopTime="0.00" timeLoss="155.38" rerouteNo="1" devices="tripinfo_A3_1.2 routing_A3_1.2" vType="truck" speedFactor="1.01" vaporized=""/>
    <tripinfo id="A1_1.7" depart="342.40" departLane="-793339796#2_1" departPos="12.10" departPosLat="0.00" departSpeed="27.78" departDelay="0.00" arrival="436.45" arrivalLane="-145894807#0_1" arrivalPos="260.97" arrivalPosLat="0.00" arrivalSpeed="8.31" duration="94.05" routeLength="1050.45" waitingTime="0.00" waitingCount="0" stopTime="0.00" timeLoss="4.79" rerouteNo="1" devices="tripinfo_A1_1.7 routing_A1_1.7" vType="bus" speedFactor="1.00" vaporized=""/>
    <tripinfo id="B2_1.4" depart="306.80" departLane="-361257727#0_1" departPos="5.10" departPosLat="0.00" departSpeed="7.68" departDelay="0.00" arrival="440.65" arrivalLane="-440471861#0_1" arrivalPos="31.49" arrivalPosLat="0.00" arrivalSpeed="25.56" duration="133.85" routeLength="1414.29" waitingTime="0.00" waitingCount="0" stopTime="0.00" timeLoss="4.73" rerouteNo="1" devices="tripinfo_B2_1.4 routing_B2_1.4" vType="car" speedFactor="0.92" vaporized=""/>
    <tripinfo id="A1_1.8" depart="383.20" departLane="-793339796#2_1" departPos="8.10" departPosLat="0.00" departSpeed="29.83" departDelay="0.00" arrival="470.25" arrivalLane="-145894807#0_1" arrivalPos="260.97" arrivalPosLat="0.00" arrivalSpeed="8.92" duration="87.05" routeLength="1054.45" waitingTime="0.00" waitingCount="0" stopTime="0.00" timeLoss="3.81" rerouteNo="1" devices="tripinfo_A1_1.8 routing_A1_1.8" vType="jeep" speedFactor="1.07" vaporized=""/>
    <personinfo id="pf_1.9" depart="324.00" type="ped" speedFactor="0.86" duration="153.70" waitingTime="12.50" timeLoss="26.46" traveltime="153.70">
        <walk depart="324.00" departPos="25.00" arrival="477.70" arrivalPos="7.46" duration="153.70" routeLength="151.44" timeLoss="26.46" maxSpeed="1.19" waitingTime="12.50"/>
    </personinfo>
    <personinfo id="pf_1.10" depart="360.00" type="ped" speedFactor="1.09" duration="118.05" waitingTime="0.05" timeLoss="18.08" traveltime="118.05">
        <walk depart="360.00" departPos="25.00" arrival="478.05" arrivalPos="7.46" duration="118.05" routeLength="151.44" timeLoss="18.08" maxSpeed="1.51" waitingTime="0.05"/>
    </personinfo>
    <tripinfo id="D3_1.3" depart="358.75" departLane="140483224#1_2" departPos="5.10" departPosLat="0.00" departSpeed="27.58" departDelay="0.00" arrival="482.50" arrivalLane="-440471861#0_2" arrivalPos="31.49" arrivalPosLat="0.00" arrivalSpeed="27.54" duration="123.75" routeLength="1069.11" waitingTime="69.50" waitingCount="2" stopTime="0.00" timeLoss="83.53" rerouteNo="1" devices="tripinfo_D3_1.3 routing_D3_1.3" vType="car" speedFactor="0.99" vaporized=""/>
    <tripinfo id="D3_1.4" depart="380.35" departLane="140483224#1_2" departPos="8.10" departPosLat="0.00" departSpeed="31.32" departDelay="0.00" arrival="483.70" arrivalLane="-440471861#0_2" arrivalPos="31.49" arrivalPosLat="0.00" arrivalSpeed="29.74" duration="103.35" routeLength="1066.11" waitingTime="55.20" waitingCount="1" stopTime="0.00" timeLoss="68.05" rerouteNo="1" devices="tripinfo_D3_1.4 routing_D3_1.4" vType="jeep" speedFactor="1.13" vaporized=""/>
    <tripinfo id="A1_1.9" depart="411.25" departLane="-793339796#2_1" departPos="8.10" departPosLat="0.00" departSpeed="31.72" departDelay="0.00" arrival="493.60" arrivalLane="-145894807#0_1" arrivalPos="260.97" arrivalPosLat="0.00" arrivalSpeed="9.51" duration="82.35" routeLength="1054.45" waitingTime="0.00" waitingCount="0" stopTime="0.00" timeLoss="4.06" rerouteNo="1" devices="tripinfo_A1_1.9 routing_A1_1.9" vType="jeep" speedFactor="1.14" vaporized=""/>
    <tripinfo id="D1_1.7" depart="370.50" departLane="140483224#1_1" departPos="2.30" departPosLat="0.00" departSpeed="34.73" departDelay="0.00" arrival="505.70" arrivalLane="-793339796#2_2" arrivalPos="83.13" arrivalPosLat="0.00" arrivalSpeed="34.68" duration="135.20" routeLength="1651.27" waitingTime="67.30" waitingCount="3" stopTime="0.00" timeLoss="85.80" rerouteNo="1" devices="tripinfo_D1_1.7 routing_D1_1.7" vType="motorcycle" speedFactor="1.25" vaporized=""/>
    <tripinfo id="C2_1.3" depart="379.20" departLane="440471861#0_2" departPos="5.10" departPosLat="0.00" departSpeed="25.40" departDelay="0.00" arrival="509.30" arrivalLane="-145894807#0_1" arrivalPos="260.97" arrivalPosLat="0.00" arrivalSpeed="7.59" duration="130.10" routeLength="1099.91" waitingTime="20.40" waitingCount="2" stopTime="0.00" timeLoss="34.61" rerouteNo="1" devices="tripinfo_C2_1.3 routing_C2_1.3" vType="car" speedFactor="0.91" vaporized=""/>
    <tripinfo id="C2_1.4" depart="400.55" departLane="440471861#0_2" departPos="5.10" departPosLat="0.00" departSpeed="30.19" departDelay="0.00" arrival="511.05" arrivalLane="-145894807#0_1" arrivalPos="260.97" arrivalPosLat="0.00" arrivalSpeed="9.03" duration="110.50" routeLength="1099.91" waitingTime="1.35" waitingCount="1" stopTime="0.00" timeLoss="30.14" rerouteNo="1" devices="tripinfo_C2_1.4 routing_C2_1.4" vType="car" speedFactor="1.09" vaporized=""/>
    <tripinfo id="C2_1.5" depart="401.10" departLane="440471861#0_2" departPos="5.10" departPosLat="0.00" departSpeed="27.29" departDelay="0.00" arrival="512.85" arrivalLane="-145894807#0_1" arrivalPos="260.97" arrivalPosLat="0.00" arrivalSpeed="8.62" duration="111.75" routeLength="1099.91" waitingTime="0.00" waitingCount="0" stopTime="0.00" timeLoss="27.94" rerouteNo="1" devices="tripinfo_C2_1.5 routing_C2_1.5" vType="car" speedFactor="1.04" vaporized=""/>
    <tripinfo id="C2_1.6" depart="426.35" departLane="440471861#0_2" departPos="2.30" departPosLat="0.00" departSpeed="28.11" departDelay="0.00" arrival="514.80" arrivalLane="-145894807#0_1" arrivalPos="260.97" arrivalPosLat="0.00" arrivalSpeed="8.42" duration="88.45" routeLength="1102.71" waitingTime="0.00" waitingCount="0" stopTime="0.00" timeLoss="2.02" rerouteNo="1" devices="tripinfo_C2_1.6 routing_C2_1.6" vType="tricycle" speedFactor="1.01" vaporized=""/>