<?xml version="1.0" encoding="UTF-8"?>

<!-- generated on 2026-02-24 12:55:03 by Eclipse SUMO sumo Version 1.24.0
<sumoConfiguration xmlns:xsi="http://www.w3.org/2001/XMLSchema-instance" xsi:noNamespaceSchemaLocation="http://sumo.dlr.de/xsd/sumoConfiguration.xsd">

    <input>
        <net-file value="Banlic-Mamatid_traci/network/banlic-mamatid_signalized.net.xml"/>
        <route-files value="Banlic-Mamatid_traci/demand/flows_normal_traffic.rou.xml"/>
        <additional-files value="Banlic-Mamatid_traci/additionals/banlic-mamatid.poly.xml,Banlic-Mamatid_traci/ additionals/banlic-mamatid.add.xml"/>
    </input>

    <output>
        <tripinfo-output value="Banlic-Mamatid_traci/output_DIAGNOSTIC/diag_fixed_trips.xml"/>
        <statistic-output value="Banlic-Mamatid_traci/output_DIAGNOSTIC/diag_fixed_stats.xml"/>
    </output>

    <time>
        <begin value="0"/>
        <end value="10800"/>
        <step-length value="0.1"/>
    </time>

    <processing>
        <lateral-resolution value="0.1"/>
        <collision.action value="none"/>
        <collision.check-junctions value="false"/>
        <collision.mingap-factor value="0"/>
    </processing>

    <report>
        <no-warnings value="true"/>
    </report>

    <traci_server>
        <remote-port value="8814"/>
    </traci_server>

    <gui_only>
        <delay value="0"/>
    </gui_only>

</sumoConfiguration>
-->

<tripinfos xmlns:xsi="http://www.w3.org/2001/XMLSchema-instance" xsi:noNamespaceSchemaLocation="http://sumo.dlr.de/xsd/tripinfo_file.xsd">
    <tripinfo id="NeighborhoodtoCalamba.0" depart="15.30" departLane="-32425190#1_1" departPos="12.10" departPosLat="0.00" departSpeed="13.89" departDelay="0.00" arrival="70.00" arrivalLane="-32425220#0_2" arrivalPos="290.87" arrivalPosLat="0.00" arrivalSpeed="27.72" duration="54.70" routeLength="1049.50" waitingTime="0.00" waitingCount="0" stopTime="0.00" timeLoss="9.45" rerouteNo="1" devices="tripinfo_NeighborhoodtoCalamba.0 routing_NeighborhoodtoCalamba.0" vType="bus" speedFactor="1.00" vaporized=""/>
    <tripinfo id="StaRosatoCalamba.0" depart="8.90" departLane="-549232953#10_1" departPos="8.10" departPosLat="0.00" departSpeed="27.78" departDelay="0.00" arrival="122.40" arrivalLane="-32425220#0_1" arrivalPos="290.87" arrivalPosLat="0.00" arrivalSpeed="27.74" duration="113.50" routeLength="3149.27" waitingTime="0.00" waitingCount="0" stopTime="0.00" timeLoss="0.12" rerouteNo="1" devices="tripinfo_StaRosatoCalamba.0 routing_StaRosatoCalamba.0" vType="jeep" speedFactor="1.00" vaporized=""/>
    <tripinfo id="StaRosatoCalamba.1" depart="16.40" departLane="-549232953#10_2" departPos="7.20" departPosLat="0.00" departSpeed="27.60" departDelay="0.00" arrival="130.70" arrivalLane="-32425220#0_1" arrivalPos="290.87" arrivalPosLat="-0.00" arrivalSpeed="27.58" duration="114.30" routeLength="3150.17" waitingTime="0.00" waitingCount="0" stopTime="0.00" timeLoss="0.14" rerouteNo="1" devices="tripinfo_StaRosatoCalamba.1 routing_StaRosatoCalamba.1" vType="truck" speedFactor="0.99" vaporized=""/>
    <personinfo id="PalengketoJeepPila.0" depart="0.00" type="ped" speedFactor="1.06" duration="140.90" waitingTime="96.70" timeLoss="101.13" traveltime="140.90">
        <walk depart="0.00" departPos="0.00" arrival="140.90" arrivalPos="25.71" duration="140.90" routeLength="58.82" timeLoss="101.13" maxSpeed="1.48" waitingTime="96.70"/>
    </personinfo>
    <personinfo id="SavemoretoJeepPila.0" depart="0.00" type="ped" speedFactor="0.87" duration="144.00" waitingTime="14.10" timeLoss="27.71" traveltime="144.00">
        <walk depart="0.00" departPos="0.00" arrival="144.00" arrivalPos="25.71" duration="144.00" routeLength="140.94" timeLoss="27.71" maxSpeed="1.21" waitingTime="14.10"/>
    </personinfo>
    <personinfo id="InasaltoPalengke.0" depart="0.00" type="ped" speedFactor="0.93" duration="147.40" waitingTime="105.90" timeLoss="110.27" traveltime="147.40">
        <walk depart="0.00" departPos="0.00" arrival="147.40" arrivalPos="34.28" duration="147.40" routeLength="48.06" timeLoss="110.27" maxSpeed="1.29" waitingTime="105.90"/>
    </personinfo>
    <personinfo id="PalengketoInasal.0" depart="0.00" type="ped" speedFactor="1.15" duration="149.00" waitingTime="108.30" timeLoss="112.51" traveltime="149.00">
        <walk depart="0.00" departPos="0.00" arrival="149.00" arrivalPos="44.65" duration="149.00" routeLength="58.43" timeLoss="112.51" maxSpeed="1.60" waitingTime="108.30"/>
    </personinfo>
    <personinfo id="InasaltoSavemore.0" depart="0.00" type="ped" speedFactor="0.97" duration="159.80" waitingTime="108.00" timeLoss="113.34" traveltime="159.80">
        <walk depart="0.00" departPos="0.00" arrival="159.80" arrivalPos="44.65" duration="159.80" routeLength="62.53" timeLoss="113.34" maxSpeed="1.35" waitingTime="108.00"/>
    </personinfo>
    <personinfo id="JeepPilatoSavemore.0" depart="0.00" type="ped" speedFactor="0.96" duration="166.00" waitingTime="106.90" timeLoss="113.23" traveltime="166.00">
        <walk depart="0.00" departPos="0.00" arrival="166.00" arrivalPos="44.65" duration="166.00" routeLength="70.59" timeLoss="113.23" maxSpeed="1.34" waitingTime="106.90"/>
    </personinfo>
    <personinfo id="SavemoretoInasal.0" depart="0.00" type="ped" speedFactor="0.85" duration="166.10" waitingTime="24.20" timeLoss="113.44" traveltime="166.10">
        <walk depart="0.00" departPos="0.00" arrival="166.10" arrivalPos="44.65" duration="166.10" routeLength="62.53" timeLoss="113.44" maxSpeed="1.19" waitingTime="24.20"/>
    </personinfo>
    <personinfo id="JeepPilatoPalengke.0" depart="0.00" type="ped" speedFactor="0.92" duration="167.60" waitingTime="108.60" timeLoss="114.82" traveltime="167.60">
        <walk depart="0.00" departPos="0.00" arrival="167.60" arrivalPos="34.28" duration="167.60" routeLength="67.39" timeLoss="114.82" maxSpeed="1.28" waitingTime="108.60"/>
    </personinfo>
    <tripinfo id="StaRosatoCalamba.2" depart="41.40" departLane="-549232953#10_2" departPos="7.20" departPosLat="0.00" departSpeed="28.37" departDelay="0.00" arrival="186.10" arrivalLane="-32425220#0_1" arrivalPos="290.87" arrivalPosLat="-0.00" arrivalSpeed="28.32" duration="144.70" routeLength="3150.17" waitingTime="15.30" waitingCount="1" stopTime="0.00" timeLoss="33.62" rerouteNo="1" devices="tripinfo_StaRosatoCalamba.2 routing_StaRosatoCalamba.2" vType="truck" speedFactor="1.02" vaporized=""/>
    <tripinfo id="Banlic-MamatidtoCalamba.0" depart="13.90" departLane="1346113028#0_1" departPos="5.10" departPosLat="0.00" departSpeed="7.97" departDelay="0.00" arrival="188.50" arrivalLane="-32425220#0_1" arrivalPos="290.87" arrivalPosLat="0.00" arrivalSpeed="26.47" duration="174.60" routeLength="1742.53" waitingTime="18.70" waitingCount="1" stopTime="0.00" timeLoss="32.90" rerouteNo="1" devices="tripinfo_Banlic-MamatidtoCalamba.0 routing_Banlic-MamatidtoCalamba.0" vType="car" speedFactor="0.96" vaporized=""/>
    <tripinfo id="StaRosatoCalamba.4" depart="54.10" departLane="-549232953#10_2" departPos="2.30" departPosLat="0.00" departSpeed="31.64" departDelay="0.00" arrival="204.50" arrivalLane="-32425220#0_2" arrivalPos="290.87" arrivalPosLat="0.00" arrivalSpeed="31.58" duration="150.40" routeLength="3155.07" waitingTime="26.60" waitingCount="2" stopTime="0.00" timeLoss="50.57" rerouteNo="1" devices="tripinfo_StaRosatoCalamba.4 routing_StaRosatoCalamba.4" vType="tricycle" speedFactor="1.14" vaporized=""/>
    <tripinfo id="StaRosatoCalamba.3" depart="48.40" departLane="-549232953#10_1" departPos="8.10" departPosLat="0.00" departSpeed="27.78" departDelay="0.00" arrival="213.00" arrivalLane="-32425220#0_1" arrivalPos="290.87" arrivalPosLat="0.00" arrivalSpeed="27.75" duration="164.60" routeLength="3149.27" waitingTime="13.30" waitingCount="2" stopTime="0.00" timeLoss="51.22" rerouteNo="1" devices="tripinfo_StaRosatoCalamba.3 routing_StaRosatoCalamba.3" vType="jeep" speedFactor="1.00" vaporized=""/>
    <tripinfo id="NeighborhoodtoStaRosa.0" depart="92.30" departLane="-32425190#1_1" departPos="5.10" departPosLat="0.00" departSpeed="14.95" departDelay="0.00" arrival="220.00" arrivalLane="549232953#10_1" arrivalPos="967.06" arrivalPosLat="0.00" arrivalSpeed="29.84" duration="127.70" routeLength="2483.86" waitingTime="18.40" waitingCount="2" stopTime="0.00" timeLoss="37.08" rerouteNo="1" devices="tripinfo_NeighborhoodtoStaRosa.0 routing_NeighborhoodtoStaRosa.0" vType="car" speedFactor="1.08" vaporized=""/>
    <tripinfo id="CalambatoStaRosa.1" depart="57.10" departLane="32425220#0_2" departPos="7.20" departPosLat="0.00" departSpeed="26.46" departDelay="0.00" arrival="231.30" arrivalLane="549232953#10_2" arrivalPos="967.06" arrivalPosLat="-0.01" arrivalSpeed="26.40" duration="174.20" routeLength="3153.47" waitingTime="37.70" waitingCount="1" stopTime="0.00" timeLoss="54.99" rerouteNo="1" devices="tripinfo_CalambatoStaRosa.1 routing_CalambatoStaRosa.1" vType="truck" speedFactor="0.95" vaporized=""/>
    <tripinfo id="CalambatoStaRosa.0" depart="35.30" departLane="32425220#0_1" departPos="5.10" departPosLat="0.00" departSpeed="23.28" departDelay="0.00" arrival="235.10" arrivalLane="549232953#10_1" arrivalPos="967.06" arrivalPosLat="0.00" arrivalSpeed="23.15" duration="199.80" routeLength="3155.57" waitingTime="55.60" waitingCount="1" stopTime="0.00" timeLoss="64.18" rerouteNo="1" devices="tripinfo_CalambatoStaRosa.0 routing_CalambatoStaRosa.0" vType="car" speedFactor="0.84" vaporized=""/>
    <personinfo id="InasaltoJeepPila.0" depart="0.00" type="ped" speedFactor="0.97" duration="236.30" waitingTime="180.90" timeLoss="186.70" traveltime="236.30">
        <walk depart="0.00" departPos="0.00" arrival="236.30" arrivalPos="25.71" duration="236.30" routeLength="67.08" timeLoss="186.70" maxSpeed="1.35" waitingTime="180.90"/>
    </personinfo>
    <personinfo id="SavemoretoPalengke.0" depart="0.00" type="ped" speedFactor="1.06" duration="238.50" waitingTime="107.70" timeLoss="135.49" traveltime="238.50">
        <walk depart="0.00" departPos="0.00" arrival="238.50" arrivalPos="34.28" duration="238.50" routeLength="151.65" timeLoss="135.49" maxSpeed="1.47" waitingTime="107.70"/>
    </personinfo>
    <personinfo id="PalengketoJeepPila.1" depart="144.00" type="ped" speedFactor="0.96" duration="98.00" waitingTime="48.70" timeLoss="53.73" traveltime="98.00">
        <walk depart="144.00" departPos="0.00" arrival="242.00" arrivalPos="25.71" duration="98.00" routeLength="58.82" timeLoss="53.73" maxSpeed="1.33" waitingTime="48.70"/>
    </personinfo>
    <personinfo id="InasaltoSavemore.1" depart="144.00" type="ped" speedFactor="1.24" duration="100.50" waitingTime="60.00" timeLoss="64.26" traveltime="100.50">
        <walk depart="144.00" departPos="0.00" arrival="244.50" arrivalPos="44.65" duration="100.50" routeLength="62.53" timeLoss="64.26" maxSpeed="1.73" waitingTime="60.00"/>
    </personinfo>
    <personinfo id="InasaltoPalengke.1" depart="144.00" type="ped" speedFactor="0.88" duration="101.60" waitingTime="57.80" timeLoss="62.18" traveltime="101.60">
        <walk depart="144.00" departPos="0.00" arrival="245.60" arrivalPos="34.28" duration="101.60" routeLength="48.06" timeLoss="62.18" maxSpeed="1.22" waitingTime="57.80"/>
    </personinfo>
    <personinfo id="SavemoretoInasal.1" depart="144.00" type="ped" speedFactor="1.17" duration="104.00" waitingTime="0.00" timeLoss="65.48" traveltime="104.00">
        <walk depart="144.00" departPos="0.00" arrival="248.00" arrivalPos="44.65" duration="104.00" routeLength="62.53" timeLoss="65.48" maxSpeed="1.62" waitingTime="0.00"/>
    </personinfo>
    <personinfo id="PalengketoInasal.1" depart="144.00" type="ped" speedFactor="1.03" duration="105.70" waitingTime="60.30" timeLoss="64.95" traveltime="105.70">
        <walk depart="144.00" departPos="0.00" arrival="249.70" arrivalPos="44.65" duration="105.70" routeLength="58.43" timeLoss="64.95" maxSpeed="1.43" waitingTime="60.30"/>
    </personinfo>
    <tripinfo id="CalambatoNeighborhood.0" depart="156.50" departLane="32425220#0_1" departPos="12.10" departPosLat="0.00" departSpeed="27.78" departDelay="0.00" arrival="250.70" arrivalLane="32425190#1_1" arrivalPos="142.43" arrivalPosLat="0.00" arrivalSpeed="13.88" duration="94.20" routeLength="1063.05" waitingTime="32.80" waitingCount="1" stopTime="0.00" timeLoss="47.70" rerouteNo="1" devices="tripinfo_CalambatoNeighborhood.0 routing_CalambatoNeighborhood.0" vType="bus" speedFactor="1.00" vaporized=""/>
    <tripinfo id="CalambatoBanlic-Mamatid.0" depart="40.30" departLane="32425220#0_2" departPos="2.30" departPosLat="0.00" departSpeed="25.10" departDelay="0.00" arrival="253.00" arrivalLane="-1346113028#0_1" arrivalPos="507.75" arrivalPosLat="-0.00" arrivalSpeed="7.32" duration="212.70" routeLength="1740.27" waitingTime="50.60" waitingCount="1" stopTime="0.00" timeLoss="62.73" rerouteNo="1" devices="tripinfo_CalambatoBanlic-Mamatid.0 routing_CalambatoBanlic-Mamatid.0" vType="motorcycle" speedFactor="0.90" vaporized=""/>
    <personinfo id="PalengketoSavemore.0" depart="0.00" type="ped" speedFactor="0.98" duration="254.70" waitingTime="195.60" timeLoss="201.53" traveltime="254.70">
        <walk depart="0.00" departPos="0.00" arrival="254.70" arrivalPos="44.65" duration="254.70" routeLength="72.73" timeLoss="201.53" maxSpeed="1.37" waitingTime="195.60"/>
    </personinfo>
    <tripinfo id="CalambatoBanlic-Mamatid.1" depart="54.60" departLane="32425220#0_1" departPos="8.10" departPosLat="0.00" departSpeed="27.78" departDelay="0.00" arrival="255.00" arrivalLane="-1346113028#0_1" arrivalPos="507.75" arrivalPosLat="0.00" arrivalSpeed="8.33" duration="200.40" routeLength="1734.47" waitingTime="39.00" waitingCount="2" stopTime="0.00" timeLoss="65.14" rerouteNo="1" devices="tripinfo_CalambatoBanlic-Mamatid.1 routing_CalambatoBanlic-Mamatid.1" vType="jeep" speedFactor="1.00" vaporized=""/>
    <personinfo id="JeepPilatoInasal.0" depart="0.00" type="ped" speedFactor="0.95" duration="256.70" waitingTime="183.90" timeLoss="191.33" traveltime="256.70">
        <walk depart="0.00" departPos="0.00" arrival="256.70" arrivalPos="44.65" duration="256.70" routeLength="86.02" timeLoss="191.33" maxSpeed="1.32" waitingTime="183.90"/>
    </personinfo>
    <personinfo id="JeepPilatoSavemore.1" depart="144.00" type="ped" speedFactor="1.00" duration="116.20" waitingTime="59.90" timeLoss="65.61" traveltime="116.20">
        <walk depart="144.00" departPos="0.00" arrival="260.20" arrivalPos="44.65" duration="116.20" routeLength="70.59" timeLoss="65.61" maxSpeed="1.40" waitingTime="59.90"/>
    </personinfo>
    <personinfo id="JeepPilatoPalengke.1" depart="144.00" type="ped" speedFactor="1.09" duration="123.60" waitingTime="73.30" timeLoss="79.07" traveltime="123.60">
        <walk depart="144.00" departPos="0.00" arrival="267.60" arrivalPos="34.28" duration="123.60" routeLength="67.39" timeLoss="79.07" maxSpeed="1.51" waitingTime="73.30"/>
    </personinfo>
    <tripinfo id="NeighborhoodtoCalamba.1" depart="201.70" departLane="-32425190#1_1" departPos="12.10" departPosLat="0.00" departSpeed="13.89" departDelay="0.00" arrival="268.40" arrivalLane="-32425220#0_2" arrivalPos="290.87" arrivalPosLat="0.00" arrivalSpeed="27.74" duration="66.70" routeLength="1049.50" waitingTime="3.30" waitingCount="1" stopTime="0.00" timeLoss="21.34" rerouteNo="1" devices="tripinfo_NeighborhoodtoCalamba.1 routing_NeighborhoodtoCalamba.1" vType="bus" speedFactor="1.00" vaporized=""/>
    <tripinfo id="StaRosatoCalamba.5" depart="125.80" departLane="-549232953#10_1" departPos="5.10" departPosLat="0.00" departSpeed="27.99" departDelay="0.00" arrival="274.90" arrivalLane="-32425220#0_1" arrivalPos="290.87" arrivalPosLat="-0.00" arrivalSpeed="27.91" duration="149.10" routeLength="3152.27" waitingTime="22.50" waitingCount="2" stopTime="0.00" timeLoss="36.41" rerouteNo="1" devices="tripinfo_StaRosatoCalamba.5 routing_StaRosatoCalamba.5" vType="car" speedFactor="1.01" vaporized=""/>
    <tripinfo id="StaRosatoBanlic-Mamatid.0" depart="84.00" departLane="-549232953#10_1" departPos="8.10" departPosLat="0.00" departSpeed="27.78" departDelay="0.00" arrival="275.60" arrivalLane="-1346113028#0_1" arrivalPos="507.75" arrivalPosLat="0.00" arrivalSpeed="8.32" duration="191.60" routeLength="3132.81" waitingTime="0.00" waitingCount="0" stopTime="0.00" timeLoss="5.78" rerouteNo="1" devices="tripinfo_StaRosatoBanlic-Mamatid.0 routing_StaRosatoBanlic-Mamatid.0" vType="jeep" speedFactor="1.00" vaporized=""/>
    <tripinfo id="Banlic-MamatidtoCalamba.1" depart="62.00" departLane="1346113028#0_1" departPos="7.20" departPosLat="0.00" departSpeed="8.23" departDelay="0.00" arrival="282.90" arrivalLane="-32425220#0_1" arrivalPos="290.87" arrivalPosLat="0.00" arrivalSpeed="27.40" duration="220.90" routeLength="1740.43" waitingTime="70.40" waitingCount="1" stopTime="0.00" timeLoss="83.90" rerouteNo="1" devices="tripinfo_Banlic-MamatidtoCalamba.1 routing_Banlic-MamatidtoCalamba.1" vType="truck" speedFactor="0.99" vaporized=""/>
    <tripinfo id="Banlic-MamatidtoCalamba.2" depart="113.40" departLane="1346113028#0_1" departPos="8.10" departPosLat="0.00" departSpeed="8.33" departDelay="0.00" arrival="286.80" arrivalLane="-32425220#0_1" arrivalPos="290.87" arrivalPosLat="0.00" arrivalSpeed="27.73" duration="173.40" routeLength="1739.53" waitingTime="21.10" waitingCount="1" stopTime="0.00" timeLoss="38.21" rerouteNo="1" devices="tripinfo_Banlic-MamatidtoCalamba.2 routing_Banlic-MamatidtoCalamba.2" vType="jeep" speedFactor="1.00" vaporized=""/>
    <tripinfo id="Banlic-MamatidtoCalamba.3" depart="129.20" departLane="1346113028#0_1" departPos="5.10" departPosLat="0.00" departSpeed="7.12" departDelay="0.00" arrival="291.90" arrivalLane="-32425220#0_1" arrivalPos="290.87" arrivalPosLat="0.00" arrivalSpeed="23.70" duration="162.70" routeLength="1742.53" waitingTime="0.00" waitingCount="0" stopTime="0.00" timeLoss="4.17" rerouteNo="1" devices="tripinfo_Banlic-MamatidtoCalamba.3 routing_Banlic-MamatidtoCalamba.3" vType="car" speedFactor="0.85" vaporized=""/>
    <tripinfo id="StaRosatoCalamba.6" depart="129.90" departLane="-549232953#10_2" departPos="2.30" departPosLat="0.00" departSpeed="27.90" departDelay="0.00" arrival="296.60" arrivalLane="-32425220#0_1" arrivalPos="290.87" arrivalPosLat="-0.00" arrivalSpeed="27.81" duration="166.70" routeLength="3155.07" waitingTime="47.80" waitingCount="1" stopTime="0.00" timeLoss="53.53" rerouteNo="1" devices="tripinfo_StaRosatoCalamba.6 routing_StaRosatoCalamba.6" vType="motorcycle" speedFactor="1.00" vaporized=""/>
    <tripinfo id="CalambatoStaRosa.3" depart="82.10" departLane="32425220#0_1" departPos="7.20" departPosLat="0.00" departSpeed="27.35" departDelay="0.00" arrival="313.60" arrivalLane="549232953#10_1" arrivalPos="967.06" arrivalPosLat="0.00" arrivalSpeed="27.34" duration="231.50" routeLength="3153.47" waitingTime="81.00" waitingCount="2" stopTime="0.00" timeLoss="116.16" rerouteNo="1" devices="tripinfo_CalambatoStaRosa.3 routing_CalambatoStaRosa.3" vType="truck" speedFactor="0.98" vaporized=""/>
    <tripinfo id="CalambatoStaRosa.2" depart="63.70" departLane="32425220#0_1" departPos="7.20" departPosLat="0.00" departSpeed="26.35" departDelay="0.00" arrival="316.30" arrivalLane="549232953#10_1" arrivalPos="967.06" arrivalPosLat="-0.00" arrivalSpeed="26.31" duration="252.60" routeLength="3153.47" waitingTime="103.10" waitingCount="2" stopTime="0.00" timeLoss="132.87" rerouteNo="1" devices="tripinfo_CalambatoStaRosa.2 routing_CalambatoStaRosa.2" vType="truck" speedFactor="0.95" vaporized=""/>
    <tripinfo id="CalambatoStaRosa.4" depart="125.70" departLane="32425220#0_1" departPos="8.10" departPosLat="0.00" departSpeed="27.78" departDelay="0.00" arrival="316.60" arrivalLane="549232953#10_2" arrivalPos="967.06" arrivalPosLat="0.00" arrivalSpeed="27.75" duration="190.90" routeLength="3152.57" waitingTime="52.10" waitingCount="1" stopTime="0.00" timeLoss="77.38" rerouteNo="1" devices="tripinfo_CalambatoStaRosa.4 routing_CalambatoStaRosa.4" vType="jeep" speedFactor="1.00" vaporized=""/>
    <tripinfo id="CalambatoStaRosa.5" depart="131.40" departLane="32425220#0_2" departPos="5.10" departPosLat="0.00" departSpeed="27.91" departDelay="0.00" arrival="318.00" arrivalLane="549232953#10_2" arrivalPos="967.06" arrivalPosLat="0.00" arrivalSpeed="27.87" duration="186.60" routeLength="3155.57" waitingTime="59.60" waitingCount="1" stopTime="0.00" timeLoss="73.50" rerouteNo="1" devices="tripinfo_CalambatoStaRosa.5 routing_CalambatoStaRosa.5" vType="car" speedFactor="1.00" vaporized=""/>
    <tripinfo id="StaRosatoNeighborhood.0" depart="214.60" departLane="-549232953#10_1" departPos="5.10" departPosLat="0.00" departSpeed="26.79" departDelay="0.00" arrival="330.10" arrivalLane="32425190#1_1" arrivalPos="142.43" arrivalPosLat="0.00" arrivalSpeed="13.31" duration="115.50" routeLength="2475.52" waitingTime="9.30" waitingCount="1" stopTime="0.00" timeLoss="14.95" rerouteNo="1" devices="tripinfo_StaRosatoNeighborhood.0 routing_StaRosatoNeighborhood.0" vType="car" speedFactor="0.96" vaporized=""/>
    <personinfo id="SavemoretoJeepPila.1" depart="144.00" type="ped" speedFactor="0.92" duration="190.50" waitingTime="67.50" timeLoss="79.86" traveltime="190.50">
        <walk depart="144.00" departPos="0.00" arrival="334.50" arrivalPos="25.71" duration="190.50" routeLength="140.94" timeLoss="79.86" maxSpeed="1.27" waitingTime="67.50"/>
    </personinfo>
    <tripinfo id="Banlic-MamatidtoStaRosa.0" depart="75.60" departLane="1346113028#0_1" departPos="12.10" departPosLat="0.00" departSpeed="8.33" departDelay="0.00" arrival="334.90" arrivalLane="549232953#10_1" arrivalPos="967.06" arrivalPosLat="-0.00" arrivalSpeed="27.74" duration="259.30" routeLength="3118.43" waitingTime="57.10" waitingCount="1" stopTime="0.00" timeLoss="75.20" rerouteNo="1" devices="tripinfo_Banlic-MamatidtoStaRosa.0 routing_Banlic-MamatidtoStaRosa.0" vType="bus" speedFactor="1.00" vaporized=""/>
    <personinfo id="InasaltoJeepPila.1" depart="144.00" type="ped" speedFactor="0.87" duration="191.20" waitingTime="129.70" timeLoss="135.76" traveltime="191.20">
        <walk depart="144.00" departPos="0.00" arrival="335.20" arrivalPos="25.71" duration="191.20" routeLength="67.08" timeLoss="135.76" maxSpeed="1.21" waitingTime="129.70"/>
    </personinfo>
    <personinfo id="InasaltoPalengke.2" depart="288.00" type="ped" speedFactor="0.99" duration="48.80" waitingTime="9.70" timeLoss="13.76" traveltime="48.80">
        <walk depart="288.00" departPos="0.00" arrival="336.80" arrivalPos="34.28" duration="48.80" routeLength="48.06" timeLoss="13.76" maxSpeed="1.37" waitingTime="9.70"/>
    </personinfo>
    <personinfo id="InasaltoSavemore.2" depart="288.00" type="ped" speedFactor="1.11" duration="57.20" waitingTime="11.60" timeLoss="16.63" traveltime="57.20">
        <walk depart="288.00" departPos="0.00" arrival="345.20" arrivalPos="44.65" duration="57.20" routeLength="62.53" timeLoss="16.63" maxSpeed="1.54" waitingTime="11.60"/>
    </personinfo>
    <personinfo id="PalengketoSavemore.1" depart="144.00" type="ped" speedFactor="1.03" duration="204.50" waitingTime="147.80" timeLoss="153.78" traveltime="204.50">
        <walk depart="144.00" departPos="0.00" arrival="348.50" arrivalPos="44.65" duration="204.50" routeLength="72.73" timeLoss="153.78" maxSpeed="1.43" waitingTime="147.80"/>
    </personinfo>
    <personinfo id="JeepPilatoSavemore.2" depart="288.00" type="ped" speedFactor="1.07" duration="63.80" waitingTime="10.70" timeLoss="16.37" traveltime="63.80">
        <walk depart="288.00" departPos="0.00" arrival="351.80" arrivalPos="44.65" duration="63.80" routeLength="70.59" timeLoss="16.37" maxSpeed="1.49" waitingTime="10.70"/>
    </personinfo>
    <personinfo id="PalengketoInasal.2" depart="288.00" type="ped" speedFactor="0.82" duration="68.20" waitingTime="11.30" timeLoss="17.03" traveltime="68.20">
        <walk depart="288.00" departPos="0.00" arrival="356.20" arrivalPos="44.65" duration="68.20" routeLength="58.43" timeLoss="17.03" maxSpeed="1.14" waitingTime="11.30"/>
    </personinfo>
    <personinfo id="JeepPilatoInasal.1" depart="144.00" type="ped" speedFactor="0.87" duration="213.40" waitingTime="134.40" timeLoss="142.61" traveltime="213.40">
        <walk depart="144.00" departPos="0.00" arrival="357.40" arrivalPos="44.65" duration="213.40" routeLength="86.02" timeLoss="142.61" maxSpeed="1.22" waitingTime="134.40"/>
    </personinfo>
    <tripinfo id="StaRosatoBanlic-Mamatid.1" depart="142.10" departLane="-549232953#10_1" departPos="2.30" departPosLat="0.00" departSpeed="27.09" departDelay="0.00" arrival="372.10" arrivalLane="-1346113028#0_1" arrivalPos="507.75" arrivalPosLat="0.00" arrivalSpeed="8.04" duration="230.00" routeLength="3138.61" waitingTime="24.30" waitingCount="2" stopTime="0.00" timeLoss="39.19" rerouteNo="1" devices="tripinfo_StaRosatoBanlic-Mamatid.1 routing_StaRosatoBanlic-Mamatid.1" vType="tricycle" speedFactor="0.98" vaporized=""/>
    <tripinfo id="Banlic-MamatidtoCalamba.4" depart="150.30" departLane="1346113028#0_1" departPos="5.10" departPosLat="0.00" departSpeed="7.79" departDelay="0.00" arrival="373.60" arrivalLane="-32425220#0_1" arrivalPos="290.87" arrivalPosLat="0.00" arrivalSpeed="25.88" duration="223.30" routeLength="1742.53" waitingTime="71.40" waitingCount="1" stopTime="0.00" timeLoss="78.36" rerouteNo="1" devices="tripinfo_Banlic-MamatidtoCalamba.4 routing_Banlic-MamatidtoCalamba.4" vType="car" speedFactor="0.93" vaporized=""/>
    <tripinfo id="StaRosatoBanlic-Mamatid.2" depart="157.90" departLane="-549232953#10_2" departPos="8.10" departPosLat="0.00" departSpeed="27.78" departDelay="0.00" arrival="374.20" arrivalLane="-1346113028#0_1" arrivalPos="507.75" arrivalPosLat="0.00" arrivalSpeed="8.30" duration="216.30" routeLength="3132.81" waitingTime="14.70" waitingCount="1" stopTime="0.00" timeLoss="30.47" rerouteNo="1" devices="tripinfo_StaRosatoBanlic-Mamatid.2 routing_StaRosatoBanlic-Mamatid.2" vType="jeep" speedFactor="1.00" vaporized=""/>
    <tripinfo id="StaRosatoCalamba.7" depart="261.90" departLane="-549232953#10_2" departPos="5.10" departPosLat="0.00" departSpeed="26.12" departDelay="0.00" arrival="398.10" arrivalLane="-32425220#0_1" arrivalPos="290.87" arrivalPosLat="-0.00" arrivalSpeed="26.08" duration="136.20" routeLength="3152.27" waitingTime="5.30" waitingCount="1" stopTime="0.00" timeLoss="15.46" rerouteNo="1" devices="tripinfo_StaRosatoCalamba.7 routing_StaRosatoCalamba.7" vType="car" speedFactor="0.94" vaporized=""/>
    <tripinfo id="StaRosatoNeighborhood.1" depart="297.00" departLane="-549232953#10_2" departPos="8.10" departPosLat="0.00" departSpeed="27.78" departDelay="0.00" arrival="398.50" arrivalLane="32425190#1_1" arrivalPos="142.43" arrivalPosLat="-0.00" arrivalSpeed="13.84" duration="101.50" routeLength="2472.52" waitingTime="0.00" waitingCount="0" stopTime="0.00" timeLoss="4.68" rerouteNo="1" devices="tripinfo_StaRosatoNeighborhood.1 routing_StaRosatoNeighborhood.1" vType="jeep" speedFactor="1.00" vaporized=""/>
    <tripinfo id="CalambatoStaRosa.6" depart="136.00" departLane="32425220#0_1" departPos="5.10" departPosLat="0.00" departSpeed="26.58" departDelay="0.00" arrival="404.60" arrivalLane="549232953#10_1" arrivalPos="967.06" arrivalPosLat="0.00" arrivalSpeed="26.54" duration="268.60" routeLength="3155.57" waitingTime="127.80" waitingCount="3" stopTime="0.00" timeLoss="149.86" rerouteNo="1" devices="tripinfo_CalambatoStaRosa.6 routing_CalambatoStaRosa.6" vType="car" speedFactor="0.96" vaporized=""/>
    <tripinfo id="NeighborhoodtoStaRosa.1" depart="236.00" departLane="-32425190#1_1" departPos="8.10" departPosLat="0.00" departSpeed="13.89" departDelay="0.00" arrival="411.10" arrivalLane="549232953#10_1" arrivalPos="967.06" arrivalPosLat="0.00" arrivalSpeed="27.76" duration="175.10" routeLength="2480.86" waitingTime="61.20" waitingCount="1" stopTime="0.00" timeLoss="77.85" rerouteNo="1" devices="tripinfo_NeighborhoodtoStaRosa.1 routing_NeighborhoodtoStaRosa.1" vType="jeep" speedFactor="1.00" vaporized=""/>
    <tripinfo id="CalambatoStaRosa.7" depart="142.00" departLane="32425220#0_2" departPos="5.10" departPosLat="0.00" departSpeed="28.06" departDelay="0.00" arrival="412.50" arrivalLane="549232953#10_1" arrivalPos="967.06" arrivalPosLat="0.00" arrivalSpeed="28.02" duration="270.50" routeLength="3155.57" waitingTime="119.90" waitingCount="4" stopTime="0.00" timeLoss="158.01" rerouteNo="1" devices="tripinfo_CalambatoStaRosa.7 routing_CalambatoStaRosa.7" vType="car" speedFactor="1.01" vaporized=""/>
    <tripinfo id="CalambatoStaRosa.8" depart="160.50" departLane="32425220#0_2" departPos="5.10" departPosLat="0.00" departSpeed="27.52" departDelay="0.00" arrival="412.50" arrivalLane="549232953#10_2" arrivalPos="967.06" arrivalPosLat="0.00" arrivalSpeed="27.40" duration="252.00" routeLength="3155.57" waitingTime="115.50" waitingCount="2" stopTime="0.00" timeLoss="137.26" rerouteNo="1" devices="tripinfo_CalambatoStaRosa.8 routing_CalambatoStaRosa.8" vType="car" speedFactor="0.99" vaporized=""/>
    <tripinfo id="CalambatoBanlic-Mamatid.2" depart="136.50" departLane="32425220#0_1" departPos="8.10" departPosLat="0.00" departSpeed="21.66" departDelay="0.00" arrival="421.40" arrivalLane="-1346113028#0_1" arrivalPos="507.75" arrivalPosLat="0.00" arrivalSpeed="8.29" duration="284.90" routeLength="1734.47" waitingTime="118.60" waitingCount="3" stopTime="0.00" timeLoss="149.58" rerouteNo="1" devices="tripinfo_CalambatoBanlic-Mamatid.2 routing_CalambatoBanlic-Mamatid.2" vType="jeep" speedFactor="1.00" vaporized=""/>
    <personinfo id="InasaltoJeepPila.2" depart="288.00" type="ped" speedFactor="1.21" duration="133.70" waitingTime="89.10" timeLoss="93.69" traveltime="133.70">
        <walk depart="288.00" departPos="0.00" arrival="421.70" arrivalPos="25.71" duration="133.70" routeLength="67.08" timeLoss="93.69" maxSpeed="1.68" waitingTime="89.10"/>
    </personinfo>