<?xml version="1.0" encoding="UTF-8"?>

<!-- generated on 2026-02-24 12:49:21 by Eclipse SUMO sumo Version 1.24.0
<sumoConfiguration xmlns:xsi="http://www.w3.org/2001/XMLSchema-instance" xsi:noNamespaceSchemaLocation="http://sumo.dlr.de/xsd/sumoConfiguration.xsd">

    <input>
        <net-file value="Banlic-Mamatid_traci/network/banlic-mamatid_signalized.net.xml"/>
        <route-files value="Banlic-Mamatid_traci/demand/flows_normal_traffic.rou.xml"/>
        <additional-files value="Banlic-Mamatid_traci/additionals/banlic-mamatid.poly.xml,Banlic-Mamatid_traci/ additionals/banlic-mamatid.add.xml"/>
    </input>

    <output>
        <tripinfo-output value="Banlic-Mamatid_traci/output_DIAGNOSTIC/diag_worst_action_trips.xml"/>
        <statistic-output value="Banlic-Mamatid_traci/output_DIAGNOSTIC/diag_worst_action_stats.xml"/>
    </output>

    <time>
        <begin value="0"/>
        <end value="10800"/>
        <step-length value="0.1"/>
    </time>

    <processing>
        <lateral-resolution value="0.1"/>
        <collision.action value="none"/>
        <collision.check-junctions value="false"/>
        <collision.mingap-factor value="0"/>
    </processing>

    <report>
        <no-warnings value="true"/>
    </report>

    <traci_server>
        <remote-port value="8814"/>
    </traci_server>

    <gui_only>
        <delay value="0"/>
    </gui_only>

</sumoConfiguration>
-->

<tripinfos xmlns:xsi="http://www.w3.org/2001/XMLSchema-instance" xsi:noNamespaceSchemaLocation="http://sumo.dlr.de/xsd/tripinfo_file.xsd">
    <tripinfo id="NeighborhoodtoCalamba.0" depart="15.30" departLane="-32425190#1_1" departPos="12.10" departPosLat="0.00" departSpeed="13.89" departDelay="0.00" arrival="70.00" arrivalLane="-32425220#0_2" arrivalPos="290.87" arrivalPosLat="0.00" arrivalSpeed="27.72" duration="54.70" routeLength="1049.50" waitingTime="0.00" waitingCount="0" stopTime="0.00" timeLoss="9.45" rerouteNo="1" devices="tripinfo_NeighborhoodtoCalamba.0 routing_NeighborhoodtoCalamba.0" vType="bus" speedFactor="1.00" vaporized=""/>
    <tripinfo id="StaRosatoCalamba.1" depart="16.40" departLane="-549232953#10_2" departPos="7.20" departPosLat="0.00" departSpeed="27.60" departDelay="0.00" arrival="166.20" arrivalLane="-32425220#0_1" arrivalPos="290.87" arrivalPosLat="-0.00" arrivalSpeed="27.54" duration="149.80" routeLength="3150.17" waitingTime="17.10" waitingCount="1" stopTime="0.00" timeLoss="35.57" rerouteNo="1" devices="tripinfo_StaRosatoCalamba.1 routing_StaRosatoCalamba.1" vType="truck" speedFactor="0.99" vaporized=""/>
    <tripinfo id="StaRosatoCalamba.0" depart="8.90" departLane="-549232953#10_1" departPos="8.10" departPosLat="0.00" departSpeed="27.78" departDelay="0.00" arrival="167.50" arrivalLane="-32425220#0_1" arrivalPos="290.87" arrivalPosLat="0.00" arrivalSpeed="27.75" duration="158.60" routeLength="3149.27" waitingTime="26.20" waitingCount="1" stopTime="0.00" timeLoss="45.18" rerouteNo="1" devices="tripinfo_StaRosatoCalamba.0 routing_StaRosatoCalamba.0" vType="jeep" speedFactor="1.00" vaporized=""/>
    <tripinfo id="StaRosatoCalamba.2" depart="41.40" departLane="-549232953#10_2" departPos="7.20" departPosLat="0.00" departSpeed="28.37" departDelay="0.00" arrival="168.80" arrivalLane="-32425220#0_1" arrivalPos="290.87" arrivalPosLat="-0.00" arrivalSpeed="28.35" duration="127.40" routeLength="3150.17" waitingTime="0.00" waitingCount="0" stopTime="0.00" timeLoss="16.34" rerouteNo="1" devices="tripinfo_StaRosatoCalamba.2 routing_StaRosatoCalamba.2" vType="truck" speedFactor="1.02" vaporized=""/>
    <tripinfo id="StaRosatoCalamba.4" depart="54.10" departLane="-549232953#10_2" departPos="2.30" departPosLat="0.00" departSpeed="31.64" departDelay="0.00" arrival="170.20" arrivalLane="-32425220#0_1" arrivalPos="290.87" arrivalPosLat="-0.00" arrivalSpeed="30.88" duration="116.10" routeLength="3155.07" waitingTime="3.70" waitingCount="1" stopTime="0.00" timeLoss="16.28" rerouteNo="1" devices="tripinfo_StaRosatoCalamba.4 routing_StaRosatoCalamba.4" vType="tricycle" speedFactor="1.14" vaporized=""/>
    <tripinfo id="StaRosatoCalamba.3" depart="48.40" departLane="-549232953#10_1" departPos="8.10" departPosLat="0.00" departSpeed="27.78" departDelay="0.00" arrival="184.30" arrivalLane="-32425220#0_1" arrivalPos="290.87" arrivalPosLat="0.00" arrivalSpeed="27.75" duration="135.90" routeLength="3149.27" waitingTime="3.50" waitingCount="1" stopTime="0.00" timeLoss="22.48" rerouteNo="1" devices="tripinfo_StaRosatoCalamba.3 routing_StaRosatoCalamba.3" vType="jeep" speedFactor="1.00" vaporized=""/>
    <personinfo id="PalengketoJeepPila.0" depart="0.00" type="ped" speedFactor="1.06" duration="217.80" waitingTime="172.90" timeLoss="178.03" traveltime="217.80">
        <walk depart="0.00" departPos="0.00" arrival="217.80" arrivalPos="25.71" duration="217.80" routeLength="58.82" timeLoss="178.03" maxSpeed="1.48" waitingTime="172.90"/>
    </personinfo>
    <personinfo id="SavemoretoJeepPila.0" depart="0.00" type="ped" speedFactor="0.87" duration="218.80" waitingTime="89.00" timeLoss="102.51" traveltime="218.80">
        <walk depart="0.00" departPos="0.00" arrival="218.80" arrivalPos="25.71" duration="218.80" routeLength="140.94" timeLoss="102.51" maxSpeed="1.21" waitingTime="89.00"/>
    </personinfo>
    <personinfo id="PalengketoJeepPila.1" depart="144.00" type="ped" speedFactor="0.96" duration="75.50" waitingTime="26.20" timeLoss="31.23" traveltime="75.50">
        <walk depart="144.00" departPos="0.00" arrival="219.50" arrivalPos="25.71" duration="75.50" routeLength="58.82" timeLoss="31.23" maxSpeed="1.33" waitingTime="26.20"/>
    </personinfo>
    <personinfo id="InasaltoSavemore.1" depart="144.00" type="ped" speedFactor="1.24" duration="79.50" waitingTime="39.10" timeLoss="43.26" traveltime="79.50">
        <walk depart="144.00" departPos="0.00" arrival="223.50" arrivalPos="44.65" duration="79.50" routeLength="62.53" timeLoss="43.26" maxSpeed="1.73" waitingTime="39.10"/>
    </personinfo>
    <personinfo id="InasaltoPalengke.1" depart="144.00" type="ped" speedFactor="0.88" duration="80.30" waitingTime="36.60" timeLoss="40.88" traveltime="80.30">
        <walk depart="144.00" departPos="0.00" arrival="224.30" arrivalPos="34.28" duration="80.30" routeLength="48.06" timeLoss="40.88" maxSpeed="1.22" waitingTime="36.60"/>
    </personinfo>
    <personinfo id="InasaltoPalengke.0" depart="0.00" type="ped" speedFactor="0.93" duration="224.70" waitingTime="182.30" timeLoss="187.57" traveltime="224.70">
        <walk depart="0.00" departPos="0.00" arrival="224.70" arrivalPos="34.28" duration="224.70" routeLength="48.06" timeLoss="187.57" maxSpeed="1.29" waitingTime="182.30"/>
    </personinfo>
    <personinfo id="PalengketoInasal.0" depart="0.00" type="ped" speedFactor="1.15" duration="226.40" waitingTime="185.30" timeLoss="189.91" traveltime="226.40">
        <walk depart="0.00" departPos="0.00" arrival="226.40" arrivalPos="44.65" duration="226.40" routeLength="58.43" timeLoss="189.91" maxSpeed="1.60" waitingTime="185.30"/>
    </personinfo>
    <personinfo id="PalengketoInasal.1" depart="144.00" type="ped" speedFactor="1.03" duration="85.20" waitingTime="39.70" timeLoss="44.45" traveltime="85.20">
        <walk depart="144.00" departPos="0.00" arrival="229.20" arrivalPos="44.65" duration="85.20" routeLength="58.43" timeLoss="44.45" maxSpeed="1.43" waitingTime="39.70"/>
    </personinfo>
    <personinfo id="SavemoretoPalengke.0" depart="0.00" type="ped" speedFactor="1.06" duration="230.10" waitingTime="99.30" timeLoss="127.09" traveltime="230.10">
        <walk depart="0.00" departPos="0.00" arrival="230.10" arrivalPos="34.28" duration="230.10" routeLength="151.65" timeLoss="127.09" maxSpeed="1.47" waitingTime="99.30"/>
    </personinfo>
    <personinfo id="JeepPilatoPalengke.1" depart="144.00" type="ped" speedFactor="1.09" duration="89.00" waitingTime="38.80" timeLoss="44.47" traveltime="89.00">
        <walk depart="144.00" departPos="0.00" arrival="233.00" arrivalPos="34.28" duration="89.00" routeLength="67.39" timeLoss="44.47" maxSpeed="1.51" waitingTime="38.80"/>
    </personinfo>
    <personinfo id="InasaltoSavemore.0" depart="0.00" type="ped" speedFactor="0.97" duration="235.20" waitingTime="183.40" timeLoss="188.74" traveltime="235.20">
        <walk depart="0.00" departPos="0.00" arrival="235.20" arrivalPos="44.65" duration="235.20" routeLength="62.53" timeLoss="188.74" maxSpeed="1.35" waitingTime="183.40"/>
    </personinfo>
    <personinfo id="JeepPilatoSavemore.1" depart="144.00" type="ped" speedFactor="1.00" duration="93.70" waitingTime="37.30" timeLoss="43.11" traveltime="93.70">
        <walk depart="144.00" departPos="0.00" arrival="237.70" arrivalPos="44.65" duration="93.70" routeLength="70.59" timeLoss="43.11" maxSpeed="1.40" waitingTime="37.30"/>
    </personinfo>
    <personinfo id="InasaltoJeepPila.0" depart="0.00" type="ped" speedFactor="0.97" duration="238.30" waitingTime="183.40" timeLoss="188.70" traveltime="238.30">
        <walk depart="0.00" departPos="0.00" arrival="238.30" arrivalPos="25.71" duration="238.30" routeLength="67.08" timeLoss="188.70" maxSpeed="1.35" waitingTime="183.40"/>
    </personinfo>
    <personinfo id="SavemoretoInasal.0" depart="0.00" type="ped" speedFactor="0.85" duration="241.00" waitingTime="99.10" timeLoss="188.34" traveltime="241.00">
        <walk depart="0.00" departPos="0.00" arrival="241.00" arrivalPos="44.65" duration="241.00" routeLength="62.53" timeLoss="188.34" maxSpeed="1.19" waitingTime="99.10"/>
    </personinfo>
    <personinfo id="JeepPilatoSavemore.0" depart="0.00" type="ped" speedFactor="0.96" duration="241.10" waitingTime="182.30" timeLoss="188.33" traveltime="241.10">
        <walk depart="0.00" departPos="0.00" arrival="241.10" arrivalPos="44.65" duration="241.10" routeLength="70.59" timeLoss="188.33" maxSpeed="1.34" waitingTime="182.30"/>
    </personinfo>
    <personinfo id="JeepPilatoPalengke.0" depart="0.00" type="ped" speedFactor="0.92" duration="241.20" waitingTime="182.80" timeLoss="188.42" traveltime="241.20">
        <walk depart="0.00" departPos="0.00" arrival="241.20" arrivalPos="34.28" duration="241.20" routeLength="67.39" timeLoss="188.42" maxSpeed="1.28" waitingTime="182.80"/>
    </personinfo>
    <personinfo id="PalengketoSavemore.1" depart="144.00" type="ped" speedFactor="1.03" duration="97.40" waitingTime="38.90" timeLoss="46.68" traveltime="97.40">
        <walk depart="144.00" departPos="0.00" arrival="241.40" arrivalPos="44.65" duration="97.40" routeLength="72.73" timeLoss="46.68" maxSpeed="1.43" waitingTime="38.90"/>
    </personinfo>
    <personinfo id="PalengketoSavemore.0" depart="0.00" type="ped" speedFactor="0.98" duration="242.00" waitingTime="183.00" timeLoss="188.83" traveltime="242.00">
        <walk depart="0.00" departPos="0.00" arrival="242.00" arrivalPos="44.65" duration="242.00" routeLength="72.73" timeLoss="188.83" maxSpeed="1.37" waitingTime="183.00"/>
    </personinfo>
    <personinfo id="SavemoretoInasal.1" depart="144.00" type="ped" speedFactor="1.17" duration="104.00" waitingTime="0.00" timeLoss="65.48" traveltime="104.00">
        <walk depart="144.00" departPos="0.00" arrival="248.00" arrivalPos="44.65" duration="104.00" routeLength="62.53" timeLoss="65.48" maxSpeed="1.62" waitingTime="0.00"/>
    </personinfo>
    <personinfo id="JeepPilatoInasal.0" depart="0.00" type="ped" speedFactor="0.95" duration="254.50" waitingTime="181.60" timeLoss="189.13" traveltime="254.50">
        <walk depart="0.00" departPos="0.00" arrival="254.50" arrivalPos="44.65" duration="254.50" routeLength="86.02" timeLoss="189.13" maxSpeed="1.32" waitingTime="181.60"/>
    </personinfo>
    <personinfo id="JeepPilatoInasal.1" depart="144.00" type="ped" speedFactor="0.87" duration="116.00" waitingTime="37.60" timeLoss="45.21" traveltime="116.00">
        <walk depart="144.00" departPos="0.00" arrival="260.00" arrivalPos="44.65" duration="116.00" routeLength="86.02" timeLoss="45.21" maxSpeed="1.22" waitingTime="37.60"/>
    </personinfo>
    <tripinfo id="NeighborhoodtoCalamba.1" depart="201.70" departLane="-32425190#1_1" departPos="12.10" departPosLat="0.00" departSpeed="13.89" departDelay="0.00" arrival="265.60" arrivalLane="-32425220#0_2" arrivalPos="290.87" arrivalPosLat="0.00" arrivalSpeed="27.72" duration="63.90" routeLength="1049.50" waitingTime="0.00" waitingCount="0" stopTime="0.00" timeLoss="18.59" rerouteNo="1" devices="tripinfo_NeighborhoodtoCalamba.1 routing_NeighborhoodtoCalamba.1" vType="bus" speedFactor="1.00" vaporized=""/>
    <tripinfo id="StaRosatoBanlic-Mamatid.0" depart="84.00" departLane="-549232953#10_1" departPos="8.10" departPosLat="0.00" departSpeed="27.78" departDelay="0.00" arrival="272.40" arrivalLane="-1346113028#0_1" arrivalPos="507.75" arrivalPosLat="0.00" arrivalSpeed="8.30" duration="188.40" routeLength="3132.81" waitingTime="0.00" waitingCount="0" stopTime="0.00" timeLoss="2.58" rerouteNo="1" devices="tripinfo_StaRosatoBanlic-Mamatid.0 routing_StaRosatoBanlic-Mamatid.0" vType="jeep" speedFactor="1.00" vaporized=""/>
    <tripinfo id="CalambatoNeighborhood.0" depart="156.50" departLane="32425220#0_1" departPos="12.10" departPosLat="0.00" departSpeed="27.78" departDelay="0.00" arrival="280.00" arrivalLane="32425190#1_1" arrivalPos="142.43" arrivalPosLat="0.00" arrivalSpeed="13.86" duration="123.50" routeLength="1063.05" waitingTime="58.60" waitingCount="1" stopTime="0.00" timeLoss="76.96" rerouteNo="1" devices="tripinfo_CalambatoNeighborhood.0 routing_CalambatoNeighborhood.0" vType="bus" speedFactor="1.00" vaporized=""/>
    <tripinfo id="NeighborhoodtoStaRosa.0" depart="92.30" departLane="-32425190#1_1" departPos="5.10" departPosLat="0.00" departSpeed="14.95" departDelay="0.00" arrival="305.90" arrivalLane="549232953#10_1" arrivalPos="967.06" arrivalPosLat="-0.00" arrivalSpeed="29.79" duration="213.60" routeLength="2483.86" waitingTime="111.50" waitingCount="2" stopTime="0.00" timeLoss="123.02" rerouteNo="1" devices="tripinfo_NeighborhoodtoStaRosa.0 routing_NeighborhoodtoStaRosa.0" vType="car" speedFactor="1.08" vaporized=""/>
    <tripinfo id="CalambatoStaRosa.0" depart="35.30" departLane="32425220#0_1" departPos="5.10" departPosLat="0.00" departSpeed="23.28" departDelay="0.00" arrival="319.00" arrivalLane="549232953#10_1" arrivalPos="967.06" arrivalPosLat="0.00" arrivalSpeed="23.17" duration="283.70" routeLength="3155.57" waitingTime="139.60" waitingCount="1" stopTime="0.00" timeLoss="148.13" rerouteNo="1" devices="tripinfo_CalambatoStaRosa.0 routing_CalambatoStaRosa.0" vType="car" speedFactor="0.84" vaporized=""/>
    <tripinfo id="StaRosatoCalamba.5" depart="125.80" departLane="-549232953#10_1" departPos="5.10" departPosLat="0.00" departSpeed="27.99" departDelay="0.00" arrival="323.70" arrivalLane="-32425220#0_1" arrivalPos="290.87" arrivalPosLat="-0.00" arrivalSpeed="27.89" duration="197.90" routeLength="3152.27" waitingTime="71.30" waitingCount="2" stopTime="0.00" timeLoss="85.21" rerouteNo="1" devices="tripinfo_StaRosatoCalamba.5 routing_StaRosatoCalamba.5" vType="car" speedFactor="1.01" vaporized=""/>
    <tripinfo id="Banlic-MamatidtoCalamba.0" depart="13.90" departLane="1346113028#0_1" departPos="5.10" departPosLat="0.00" departSpeed="7.97" departDelay="0.00" arrival="325.90" arrivalLane="-32425220#0_1" arrivalPos="290.87" arrivalPosLat="0.00" arrivalSpeed="26.48" duration="312.00" routeLength="1742.53" waitingTime="163.30" waitingCount="1" stopTime="0.00" timeLoss="170.31" rerouteNo="1" devices="tripinfo_Banlic-MamatidtoCalamba.0 routing_Banlic-MamatidtoCalamba.0" vType="car" speedFactor="0.96" vaporized=""/>
    <tripinfo id="Banlic-MamatidtoCalamba.1" depart="62.00" departLane="1346113028#0_1" departPos="7.20" departPosLat="0.00" departSpeed="8.23" departDelay="0.00" arrival="332.70" arrivalLane="-32425220#0_1" arrivalPos="290.87" arrivalPosLat="0.00" arrivalSpeed="27.42" duration="270.70" routeLength="1740.43" waitingTime="117.30" waitingCount="1" stopTime="0.00" timeLoss="133.75" rerouteNo="1" devices="tripinfo_Banlic-MamatidtoCalamba.1 routing_Banlic-MamatidtoCalamba.1" vType="truck" speedFactor="0.99" vaporized=""/>
    <tripinfo id="CalambatoBanlic-Mamatid.0" depart="40.30" departLane="32425220#0_2" departPos="2.30" departPosLat="0.00" departSpeed="25.10" departDelay="0.00" arrival="335.60" arrivalLane="-1346113028#0_1" arrivalPos="507.75" arrivalPosLat="-0.00" arrivalSpeed="7.49" duration="295.30" routeLength="1740.27" waitingTime="134.60" waitingCount="1" stopTime="0.00" timeLoss="145.29" rerouteNo="1" devices="tripinfo_CalambatoBanlic-Mamatid.0 routing_CalambatoBanlic-Mamatid.0" vType="motorcycle" speedFactor="0.90" vaporized=""/>
    <tripinfo id="Banlic-MamatidtoCalamba.2" depart="113.40" departLane="1346113028#0_1" departPos="8.10" departPosLat="0.00" departSpeed="8.33" departDelay="0.00" arrival="336.60" arrivalLane="-32425220#0_1" arrivalPos="290.87" arrivalPosLat="0.00" arrivalSpeed="27.76" duration="223.20" routeLength="1739.53" waitingTime="71.00" waitingCount="1" stopTime="0.00" timeLoss="88.03" rerouteNo="1" devices="tripinfo_Banlic-MamatidtoCalamba.2 routing_Banlic-MamatidtoCalamba.2" vType="jeep" speedFactor="1.00" vaporized=""/>
    <tripinfo id="CalambatoBanlic-Mamatid.1" depart="54.60" departLane="32425220#0_1" departPos="8.10" departPosLat="0.00" departSpeed="27.78" departDelay="0.00" arrival="337.60" arrivalLane="-1346113028#0_1" arrivalPos="507.75" arrivalPosLat="0.00" arrivalSpeed="8.28" duration="283.00" routeLength="1734.47" waitingTime="122.50" waitingCount="1" stopTime="0.00" timeLoss="147.67" rerouteNo="1" devices="tripinfo_CalambatoBanlic-Mamatid.1 routing_CalambatoBanlic-Mamatid.1" vType="jeep" speedFactor="1.00" vaporized=""/>
    <tripinfo id="Banlic-MamatidtoCalamba.4" depart="150.30" departLane="1346113028#0_1" departPos="5.10" departPosLat="0.00" departSpeed="7.79" departDelay="0.00" arrival="339.70" arrivalLane="-32425220#0_2" arrivalPos="290.87" arrivalPosLat="0.00" arrivalSpeed="25.88" duration="189.40" routeLength="1742.53" waitingTime="30.10" waitingCount="1" stopTime="0.00" timeLoss="44.37" rerouteNo="1" devices="tripinfo_Banlic-MamatidtoCalamba.4 routing_Banlic-MamatidtoCalamba.4" vType="car" speedFactor="0.93" vaporized=""/>
    <tripinfo id="Banlic-MamatidtoCalamba.3" depart="129.20" departLane="1346113028#0_1" departPos="5.10" departPosLat="0.00" departSpeed="7.12" departDelay="0.00" arrival="341.40" arrivalLane="-32425220#0_1" arrivalPos="290.87" arrivalPosLat="0.00" arrivalSpeed="23.66" duration="212.20" routeLength="1742.53" waitingTime="39.80" waitingCount="1" stopTime="0.00" timeLoss="53.62" rerouteNo="1" devices="tripinfo_Banlic-MamatidtoCalamba.3 routing_Banlic-MamatidtoCalamba.3" vType="car" speedFactor="0.85" vaporized=""/>
    <tripinfo id="CalambatoStaRosa.4" depart="125.70" departLane="32425220#0_1" departPos="8.10" departPosLat="0.00" departSpeed="27.78" departDelay="0.00" arrival="348.00" arrivalLane="549232953#10_1" arrivalPos="967.06" arrivalPosLat="-0.00" arrivalSpeed="27.76" duration="222.30" routeLength="3152.57" waitingTime="89.10" waitingCount="1" stopTime="0.00" timeLoss="108.75" rerouteNo="1" devices="tripinfo_CalambatoStaRosa.4 routing_CalambatoStaRosa.4" vType="jeep" speedFactor="1.00" vaporized=""/>
    <tripinfo id="CalambatoStaRosa.5" depart="131.40" departLane="32425220#0_2" departPos="5.10" departPosLat="0.00" departSpeed="27.91" departDelay="0.00" arrival="349.30" arrivalLane="549232953#10_2" arrivalPos="967.06" arrivalPosLat="0.00" arrivalSpeed="27.80" duration="217.90" routeLength="3155.57" waitingTime="81.40" waitingCount="1" stopTime="0.00" timeLoss="104.78" rerouteNo="1" devices="tripinfo_CalambatoStaRosa.5 routing_CalambatoStaRosa.5" vType="car" speedFactor="1.00" vaporized=""/>
    <tripinfo id="CalambatoStaRosa.1" depart="57.10" departLane="32425220#0_2" departPos="7.20" departPosLat="0.00" departSpeed="26.46" departDelay="0.00" arrival="350.40" arrivalLane="549232953#10_1" arrivalPos="967.06" arrivalPosLat="-0.00" arrivalSpeed="26.40" duration="293.30" routeLength="3153.47" waitingTime="148.30" waitingCount="2" stopTime="0.00" timeLoss="174.13" rerouteNo="1" devices="tripinfo_CalambatoStaRosa.1 routing_CalambatoStaRosa.1" vType="truck" speedFactor="0.95" vaporized=""/>
    <tripinfo id="CalambatoStaRosa.2" depart="63.70" departLane="32425220#0_1" departPos="7.20" departPosLat="0.00" departSpeed="26.35" departDelay="0.00" arrival="352.20" arrivalLane="549232953#10_1" arrivalPos="967.06" arrivalPosLat="0.00" arrivalSpeed="26.33" duration="288.50" routeLength="3153.47" waitingTime="140.40" waitingCount="2" stopTime="0.00" timeLoss="168.77" rerouteNo="1" devices="tripinfo_CalambatoStaRosa.2 routing_CalambatoStaRosa.2" vType="truck" speedFactor="0.95" vaporized=""/>
    <tripinfo id="CalambatoStaRosa.3" depart="82.10" departLane="32425220#0_1" departPos="7.20" departPosLat="0.00" departSpeed="27.35" departDelay="0.00" arrival="353.50" arrivalLane="549232953#10_1" arrivalPos="967.06" arrivalPosLat="0.00" arrivalSpeed="27.30" duration="271.40" routeLength="3153.47" waitingTime="122.70" waitingCount="2" stopTime="0.00" timeLoss="156.08" rerouteNo="1" devices="tripinfo_CalambatoStaRosa.3 routing_CalambatoStaRosa.3" vType="truck" speedFactor="0.98" vaporized=""/>
    <tripinfo id="CalambatoStaRosa.6" depart="136.00" departLane="32425220#0_1" departPos="5.10" departPosLat="0.00" departSpeed="26.58" departDelay="0.00" arrival="353.50" arrivalLane="549232953#10_2" arrivalPos="967.06" arrivalPosLat="0.00" arrivalSpeed="26.46" duration="217.50" routeLength="3155.57" waitingTime="75.80" waitingCount="1" stopTime="0.00" timeLoss="98.76" rerouteNo="1" devices="tripinfo_CalambatoStaRosa.6 routing_CalambatoStaRosa.6" vType="car" speedFactor="0.96" vaporized=""/>
    <tripinfo id="CalambatoStaRosa.8" depart="160.50" departLane="32425220#0_2" departPos="5.10" departPosLat="0.00" departSpeed="27.52" departDelay="0.00" arrival="354.80" arrivalLane="549232953#10_2" arrivalPos="967.06" arrivalPosLat="0.00" arrivalSpeed="27.44" duration="194.30" routeLength="3155.57" waitingTime="60.60" waitingCount="1" stopTime="0.00" timeLoss="79.59" rerouteNo="1" devices="tripinfo_CalambatoStaRosa.8 routing_CalambatoStaRosa.8" vType="car" speedFactor="0.99" vaporized=""/>
    <tripinfo id="CalambatoStaRosa.7" depart="142.00" departLane="32425220#0_2" departPos="5.10" departPosLat="0.00" departSpeed="28.06" departDelay="0.00" arrival="354.90" arrivalLane="549232953#10_1" arrivalPos="967.06" arrivalPosLat="-0.00" arrivalSpeed="28.00" duration="212.90" routeLength="3155.57" waitingTime="72.10" waitingCount="1" stopTime="0.00" timeLoss="100.35" rerouteNo="1" devices="tripinfo_CalambatoStaRosa.7 routing_CalambatoStaRosa.7" vType="car" speedFactor="1.01" vaporized=""/>
    <tripinfo id="StaRosatoNeighborhood.0" depart="214.60" departLane="-549232953#10_1" departPos="5.10" departPosLat="0.00" departSpeed="26.79" departDelay="0.00" arrival="355.80" arrivalLane="32425190#1_1" arrivalPos="142.43" arrivalPosLat="0.00" arrivalSpeed="13.27" duration="141.20" routeLength="2475.52" waitingTime="32.80" waitingCount="1" stopTime="0.00" timeLoss="40.65" rerouteNo="1" devices="tripinfo_StaRosatoNeighborhood.0 routing_StaRosatoNeighborhood.0" vType="car" speedFactor="0.96" vaporized=""/>
    <tripinfo id="CalambatoStaRosa.9" depart="227.40" departLane="32425220#0_1" departPos="7.20" departPosLat="0.00" departSpeed="28.45" departDelay="0.00" arrival="356.40" arrivalLane="549232953#10_1" arrivalPos="967.06" arrivalPosLat="-0.00" arrivalSpeed="28.44" duration="129.00" routeLength="3153.47" waitingTime="0.00" waitingCount="0" stopTime="0.00" timeLoss="18.15" rerouteNo="1" devices="tripinfo_CalambatoStaRosa.9 routing_CalambatoStaRosa.9" vType="truck" speedFactor="1.02" vaporized=""/>
    <tripinfo id="CalambatoBanlic-Mamatid.2" depart="136.50" departLane="32425220#0_1" departPos="8.10" departPosLat="0.00" departSpeed="21.74" departDelay="0.00" arrival="366.80" arrivalLane="-1346113028#0_1" arrivalPos="507.75" arrivalPosLat="-0.00" arrivalSpeed="8.29" duration="230.30" routeLength="1734.47" waitingTime="66.00" waitingCount="2" stopTime="0.00" timeLoss="95.06" rerouteNo="1" devices="tripinfo_CalambatoBanlic-Mamatid.2 routing_CalambatoBanlic-Mamatid.2" vType="jeep" speedFactor="1.00" vaporized=""/>
    <tripinfo id="StaRosatoCalamba.6" depart="129.90" departLane="-549232953#10_2" departPos="2.30" departPosLat="0.00" departSpeed="27.90" departDelay="0.00" arrival="370.30" arrivalLane="-32425220#0_2" arrivalPos="290.87" arrivalPosLat="0.00" arrivalSpeed="27.83" duration="240.40" routeLength="3155.07" waitingTime="121.60" waitingCount="1" stopTime="0.00" timeLoss="127.26" rerouteNo="1" devices="tripinfo_StaRosatoCalamba.6 routing_StaRosatoCalamba.6" vType="motorcycle" speedFactor="1.00" vaporized=""/>
    <tripinfo id="StaRosatoCalamba.7" depart="261.90" departLane="-549232953#10_2" departPos="5.10" departPosLat="0.00" departSpeed="26.12" departDelay="0.00" arrival="382.90" arrivalLane="-32425220#0_1" arrivalPos="290.87" arrivalPosLat="-0.00" arrivalSpeed="26.04" duration="121.00" routeLength="3152.27" waitingTime="0.00" waitingCount="0" stopTime="0.00" timeLoss="0.30" rerouteNo="1" devices="tripinfo_StaRosatoCalamba.7 routing_StaRosatoCalamba.7" vType="car" speedFactor="0.94" vaporized=""/>
    <tripinfo id="Banlic-MamatidtoStaRosa.0" depart="75.60" departLane="1346113028#0_1" departPos="12.10" departPosLat="0.00" departSpeed="8.33" departDelay="0.00" arrival="385.00" arrivalLane="549232953#10_1" arrivalPos="967.06" arrivalPosLat="-0.00" arrivalSpeed="27.76" duration="309.40" routeLength="3118.43" waitingTime="107.10" waitingCount="1" stopTime="0.00" timeLoss="125.31" rerouteNo="1" devices="tripinfo_Banlic-MamatidtoStaRosa.0 routing_Banlic-MamatidtoStaRosa.0" vType="bus" speedFactor="1.00" vaporized=""/>
    <tripinfo id="StaRosatoNeighborhood.1" depart="297.00" departLane="-549232953#10_2" departPos="8.10" departPosLat="0.00" departSpeed="27.78" departDelay="0.00" arrival="398.60" arrivalLane="32425190#1_1" arrivalPos="142.43" arrivalPosLat="-0.00" arrivalSpeed="13.84" duration="101.60" routeLength="2472.52" waitingTime="0.00" waitingCount="0" stopTime="0.00" timeLoss="4.74" rerouteNo="1" devices="tripinfo_StaRosatoNeighborhood.1 routing_StaRosatoNeighborhood.1" vType="jeep" speedFactor="1.00" vaporized=""/>
    <tripinfo id="CalambatoBanlic-Mamatid.3" depart="263.00" departLane="32425220#0_1" departPos="8.10" departPosLat="0.00" departSpeed="27.78" departDelay="0.00" arrival="401.10" arrivalLane="-1346113028#0_1" arrivalPos="507.75" arrivalPosLat="0.00" arrivalSpeed="8.28" duration="138.10" routeLength="1734.47" waitingTime="0.00" waitingCount="0" stopTime="0.00" timeLoss="2.92" rerouteNo="1" devices="tripinfo_CalambatoBanlic-Mamatid.3 routing_CalambatoBanlic-Mamatid.3" vType="jeep" speedFactor="1.00" vaporized=""/>
    <tripinfo id="Banlic-MamatidtoStaRosa.1" depart="191.50" departLane="1346113028#0_1" departPos="8.10" departPosLat="0.00" departSpeed="8.33" departDelay="0.00" arrival="405.30" arrivalLane="549232953#10_1" arrivalPos="967.06" arrivalPosLat="-0.00" arrivalSpeed="27.76" duration="213.80" routeLength="3122.43" waitingTime="0.00" waitingCount="0" stopTime="0.00" timeLoss="29.31" rerouteNo="1" devices="tripinfo_Banlic-MamatidtoStaRosa.1 routing_Banlic-MamatidtoStaRosa.1" vType="jeep" speedFactor="1.00" vaporized=""/>
    <tripinfo id="StaRosatoCalamba.8" depart="312.90" departLane="-549232953#10_2" departPos="5.10" departPosLat="0.00" departSpeed="28.21" departDelay="0.00" arrival="425.00" arrivalLane="-32425220#0_1" arrivalPos="290.87" arrivalPosLat="-0.00" arrivalSpeed="28.20" duration="112.10" routeLength="3152.27" waitingTime="0.00" waitingCount="0" stopTime="0.00" timeLoss="0.25" rerouteNo="1" devices="tripinfo_StaRosatoCalamba.8 routing_StaRosatoCalamba.8" vType="car" speedFactor="1.02" vaporized=""/>
    <personinfo id="SavemoretoJeepPila.2" depart="288.00" type="ped" speedFactor="0.95" duration="143.40" waitingTime="24.70" timeLoss="36.45" traveltime="143.40">
        <walk depart="288.00" departPos="0.00" arrival="431.40" arrivalPos="25.71" duration="143.40" routeLength="140.94" timeLoss="36.45" maxSpeed="1.32" waitingTime="24.70"/>
    </personinfo>
    <personinfo id="SavemoretoJeepPila.1" depart="144.00" type="ped" speedFactor="0.92" duration="289.60" waitingTime="166.70" timeLoss="178.96" traveltime="289.60">
        <walk depart="144.00" departPos="0.00" arrival="433.60" arrivalPos="25.71" duration="289.60" routeLength="140.94" timeLoss="178.96" maxSpeed="1.27" waitingTime="166.70"/>
    </personinfo>
    <personinfo id="InasaltoJeepPila.1" depart="144.00" type="ped" speedFactor="0.87" duration="290.00" waitingTime="228.30" timeLoss="234.56" traveltime="290.00">
        <walk depart="144.00" departPos="0.00" arrival="434.00" arrivalPos="25.71" duration="290.00" routeLength="67.08" timeLoss="234.56" maxSpeed="1.21" waitingTime="228.30"/>
    </personinfo>
    <personinfo id="PalengketoJeepPila.2" depart="288.00" type="ped" speedFactor="0.97" duration="146.50" waitingTime="97.90" timeLoss="102.76" traveltime="146.50">
        <walk depart="288.00" departPos="0.00" arrival="434.50" arrivalPos="25.71" duration="146.50" routeLength="58.82" timeLoss="102.76" maxSpeed="1.34" waitingTime="97.90"/>
    </personinfo>
    <personinfo id="InasaltoPalengke.2" depart="288.00" type="ped" speedFactor="0.99" duration="147.80" waitingTime="108.60" timeLoss="112.76" traveltime="147.80">
        <walk depart="288.00" departPos="0.00" arrival="435.80" arrivalPos="34.28" duration="147.80" routeLength="48.06" timeLoss="112.76" maxSpeed="1.37" waitingTime="108.60"/>
    </personinfo>