<?xml version="1.0" encoding="UTF-8"?>

<!-- generated on 2026-02-25 05:27:50 by Eclipse SUMO sumo Version 1.24.0
<sumoConfiguration xmlns:xsi="http://www.w3.org/2001/XMLSchema-instance" xsi:noNamespaceSchemaLocation="http://sumo.dlr.de/xsd/sumoConfiguration.xsd">

    <input>
        <net-file value="Banlic-Mamatid_traci/network/banlic-mamatid_signalized.net.xml"/>
        <route-files value="Banlic-Mamatid_traci/demand/flows_slow_traffic.rou.xml"/>
        <additional-files value="Banlic-Mamatid_traci/additionals/banlic-mamatid.poly.xml,Banlic-Mamatid_traci/ additionals/banlic-mamatid.add.xml"/>
    </input>

    <output>
        <tripinfo-output value="Banlic-Mamatid_traci/output_NoDRL/SD_NoDRL_slow_trips.xml"/>
        <statistic-output value="Banlic-Mamatid_traci/output_NoDRL/SD_NoDRL_slow_stats.xml"/>
    </output>

    <time>
        <begin value="0"/>
        <end value="10800"/>
        <step-length value="0.1"/>
    </time>

    <processing>
        <lateral-resolution value="0.1"/>
        <collision.action value="none"/>
        <collision.check-junctions value="false"/>
        <collision.mingap-factor value="0"/>
    </processing>

    <report>
        <no-warnings value="true"/>
    </report>

    <traci_server>
        <remote-port value="63055"/>
    </traci_server>

    <gui_only>
        <delay value="0"/>
    </gui_only>

</sumoConfiguration>
-->

<tripinfos xmlns:xsi="http://www.w3.org/2001/XMLSchema-instance" xsi:noNamespaceSchemaLocation="http://sumo.dlr.de/xsd/tripinfo_file.xsd">
    <tripinfo id="NeighborhoodtoCalamba.0" depart="15.30" departLane="-32425190#1_1" departPos="5.10" departPosLat="0.00" departSpeed="14.32" departDelay="0.00" arrival="64.50" arrivalLane="-32425220#0_2" arrivalPos="290.87" arrivalPosLat="0.00" arrivalSpeed="28.60" duration="49.20" routeLength="1056.50" waitingTime="0.00" waitingCount="0" stopTime="0.00" timeLoss="4.77" rerouteNo="1" devices="tripinfo_NeighborhoodtoCalamba.0 routing_NeighborhoodtoCalamba.0" vType="car" speedFactor="1.03" vaporized=""/>
    <tripinfo id="CalambatoNeighborhood.0" depart="22.80" departLane="32425220#0_1" departPos="12.10" departPosLat="0.00" departSpeed="27.78" departDelay="0.00" arrival="73.30" arrivalLane="32425190#1_1" arrivalPos="142.43" arrivalPosLat="0.00" arrivalSpeed="13.83" duration="50.50" routeLength="1063.05" waitingTime="0.00" waitingCount="0" stopTime="0.00" timeLoss="4.01" rerouteNo="1" devices="tripinfo_CalambatoNeighborhood.0 routing_CalambatoNeighborhood.0" vType="bus" speedFactor="1.00" vaporized=""/>
    <tripinfo id="NeighborhoodtoStaRosa.0" depart="1.20" departLane="-32425190#1_1" departPos="5.10" departPosLat="0.00" departSpeed="14.02" departDelay="0.00" arrival="101.50" arrivalLane="549232953#10_1" arrivalPos="967.06" arrivalPosLat="0.00" arrivalSpeed="28.04" duration="100.30" routeLength="2483.86" waitingTime="0.00" waitingCount="0" stopTime="0.00" timeLoss="3.65" rerouteNo="1" devices="tripinfo_NeighborhoodtoStaRosa.0 routing_NeighborhoodtoStaRosa.0" vType="car" speedFactor="1.01" vaporized=""/>
    <tripinfo id="CalambatoStaRosa.1" depart="17.30" departLane="32425220#0_2" departPos="8.10" departPosLat="0.00" departSpeed="27.78" departDelay="0.00" arrival="131.60" arrivalLane="549232953#10_2" arrivalPos="967.06" arrivalPosLat="-0.00" arrivalSpeed="27.75" duration="114.30" routeLength="3152.57" waitingTime="0.00" waitingCount="0" stopTime="0.00" timeLoss="0.79" rerouteNo="1" devices="tripinfo_CalambatoStaRosa.1 routing_CalambatoStaRosa.1" vType="jeep" speedFactor="1.00" vaporized=""/>
    <tripinfo id="CalambatoStaRosa.0" depart="6.60" departLane="32425220#0_1" departPos="7.20" departPosLat="0.00" departSpeed="25.75" departDelay="0.00" arrival="132.20" arrivalLane="549232953#10_1" arrivalPos="967.06" arrivalPosLat="0.00" arrivalSpeed="25.73" duration="125.60" routeLength="3153.47" waitingTime="0.00" waitingCount="0" stopTime="0.00" timeLoss="3.11" rerouteNo="1" devices="tripinfo_CalambatoStaRosa.0 routing_CalambatoStaRosa.0" vType="truck" speedFactor="0.93" vaporized=""/>
    <tripinfo id="CalambatoStaRosa.4" depart="35.30" departLane="32425220#0_2" departPos="2.30" departPosLat="0.00" departSpeed="31.32" departDelay="0.00" arrival="137.00" arrivalLane="549232953#10_1" arrivalPos="967.06" arrivalPosLat="-0.00" arrivalSpeed="31.32" duration="101.70" routeLength="3158.37" waitingTime="0.00" waitingCount="0" stopTime="0.00" timeLoss="0.82" rerouteNo="1" devices="tripinfo_CalambatoStaRosa.4 routing_CalambatoStaRosa.4" vType="tricycle" speedFactor="1.13" vaporized=""/>
    <tripinfo id="Banlic-MamatidtoCalamba.0" depart="13.90" departLane="1346113028#0_1" departPos="5.10" departPosLat="0.00" departSpeed="9.48" departDelay="0.00" arrival="137.50" arrivalLane="-32425220#0_1" arrivalPos="290.87" arrivalPosLat="0.00" arrivalSpeed="31.61" duration="123.60" routeLength="1742.53" waitingTime="0.00" waitingCount="0" stopTime="0.00" timeLoss="4.54" rerouteNo="1" devices="tripinfo_Banlic-MamatidtoCalamba.0 routing_Banlic-MamatidtoCalamba.0" vType="car" speedFactor="1.14" vaporized=""/>
    <tripinfo id="CalambatoStaRosa.2" depart="26.60" departLane="32425220#0_2" departPos="12.10" departPosLat="0.00" departSpeed="27.78" departDelay="0.00" arrival="145.10" arrivalLane="549232953#10_1" arrivalPos="967.06" arrivalPosLat="-0.00" arrivalSpeed="27.74" duration="118.50" routeLength="3148.57" waitingTime="0.00" waitingCount="0" stopTime="0.00" timeLoss="5.15" rerouteNo="1" devices="tripinfo_CalambatoStaRosa.2 routing_CalambatoStaRosa.2" vType="bus" speedFactor="1.00" vaporized=""/>
    <tripinfo id="CalambatoStaRosa.3" depart="30.30" departLane="32425220#0_1" departPos="2.30" departPosLat="0.00" departSpeed="26.18" departDelay="0.00" arrival="151.70" arrivalLane="549232953#10_1" arrivalPos="967.06" arrivalPosLat="0.00" arrivalSpeed="25.98" duration="121.40" routeLength="3158.37" waitingTime="0.00" waitingCount="0" stopTime="0.00" timeLoss="0.70" rerouteNo="1" devices="tripinfo_CalambatoStaRosa.3 routing_CalambatoStaRosa.3" vType="motorcycle" speedFactor="0.94" vaporized=""/>
    <tripinfo id="StaRosatoCalamba.0" depart="3.00" departLane="-549232953#10_1" departPos="2.30" departPosLat="0.00" departSpeed="25.78" departDelay="0.00" arrival="157.40" arrivalLane="-32425220#0_2" arrivalPos="290.87" arrivalPosLat="0.00" arrivalSpeed="25.49" duration="154.40" routeLength="3155.07" waitingTime="26.20" waitingCount="1" stopTime="0.00" timeLoss="31.99" rerouteNo="1" devices="tripinfo_StaRosatoCalamba.0 routing_StaRosatoCalamba.0" vType="motorcycle" speedFactor="0.93" vaporized=""/>
    <tripinfo id="StaRosatoCalamba.3" depart="16.40" departLane="-549232953#10_2" departPos="5.10" departPosLat="0.00" departSpeed="30.77" departDelay="0.00" arrival="159.90" arrivalLane="-32425220#0_2" arrivalPos="290.87" arrivalPosLat="0.00" arrivalSpeed="30.66" duration="143.50" routeLength="3152.27" waitingTime="26.50" waitingCount="1" stopTime="0.00" timeLoss="41.06" rerouteNo="1" devices="tripinfo_StaRosatoCalamba.3 routing_StaRosatoCalamba.3" vType="car" speedFactor="1.11" vaporized=""/>
    <tripinfo id="StaRosatoCalamba.6" depart="48.10" departLane="-549232953#10_1" departPos="5.10" departPosLat="0.00" departSpeed="31.49" departDelay="0.00" arrival="162.30" arrivalLane="-32425220#0_1" arrivalPos="290.87" arrivalPosLat="-0.00" arrivalSpeed="31.41" duration="114.20" routeLength="3152.27" waitingTime="0.00" waitingCount="0" stopTime="0.00" timeLoss="14.11" rerouteNo="1" devices="tripinfo_StaRosatoCalamba.6 routing_StaRosatoCalamba.6" vType="car" speedFactor="1.13" vaporized=""/>
    <tripinfo id="StaRosatoCalamba.2" depart="8.90" departLane="-549232953#10_1" departPos="2.30" departPosLat="0.00" departSpeed="25.97" departDelay="0.00" arrival="163.20" arrivalLane="-32425220#0_2" arrivalPos="290.87" arrivalPosLat="0.00" arrivalSpeed="25.93" duration="154.30" routeLength="3155.07" waitingTime="18.30" waitingCount="1" stopTime="0.00" timeLoss="32.80" rerouteNo="1" devices="tripinfo_StaRosatoCalamba.2 routing_StaRosatoCalamba.2" vType="tricycle" speedFactor="0.94" vaporized=""/>
    <tripinfo id="StaRosatoCalamba.1" depart="6.90" departLane="-549232953#10_2" departPos="7.20" departPosLat="0.00" departSpeed="29.57" departDelay="0.00" arrival="165.00" arrivalLane="-32425220#0_1" arrivalPos="290.87" arrivalPosLat="0.00" arrivalSpeed="29.54" duration="158.10" routeLength="3150.17" waitingTime="32.80" waitingCount="1" stopTime="0.00" timeLoss="51.54" rerouteNo="1" devices="tripinfo_StaRosatoCalamba.1 routing_StaRosatoCalamba.1" vType="truck" speedFactor="1.06" vaporized=""/>
    <tripinfo id="StaRosatoCalamba.4" depart="41.40" departLane="-549232953#10_2" departPos="7.20" departPosLat="0.00" departSpeed="28.95" departDelay="0.00" arrival="166.60" arrivalLane="-32425220#0_1" arrivalPos="290.87" arrivalPosLat="-0.00" arrivalSpeed="28.93" duration="125.20" routeLength="3150.17" waitingTime="0.00" waitingCount="0" stopTime="0.00" timeLoss="16.37" rerouteNo="1" devices="tripinfo_StaRosatoCalamba.4 routing_StaRosatoCalamba.4" vType="truck" speedFactor="1.04" vaporized=""/>
    <tripinfo id="CalambatoBanlic-Mamatid.0" depart="40.30" departLane="32425220#0_1" departPos="5.10" departPosLat="0.00" departSpeed="29.05" departDelay="0.00" arrival="172.80" arrivalLane="-1346113028#0_1" arrivalPos="507.75" arrivalPosLat="0.00" arrivalSpeed="8.69" duration="132.50" routeLength="1737.47" waitingTime="0.00" waitingCount="0" stopTime="0.00" timeLoss="3.08" rerouteNo="1" devices="tripinfo_CalambatoBanlic-Mamatid.0 routing_CalambatoBanlic-Mamatid.0" vType="car" speedFactor="1.05" vaporized=""/>
    <tripinfo id="StaRosatoCalamba.7" depart="48.40" departLane="-549232953#10_2" departPos="7.20" departPosLat="0.00" departSpeed="27.83" departDelay="0.00" arrival="182.00" arrivalLane="-32425220#0_1" arrivalPos="290.87" arrivalPosLat="-0.00" arrivalSpeed="28.16" duration="133.60" routeLength="3150.17" waitingTime="3.40" waitingCount="1" stopTime="0.00" timeLoss="21.79" rerouteNo="1" devices="tripinfo_StaRosatoCalamba.7 routing_StaRosatoCalamba.7" vType="truck" speedFactor="1.01" vaporized=""/>
    <tripinfo id="StaRosatoCalamba.9" depart="54.10" departLane="-549232953#10_2" departPos="8.10" departPosLat="0.00" departSpeed="27.78" departDelay="0.00" arrival="184.60" arrivalLane="-32425220#0_1" arrivalPos="290.87" arrivalPosLat="-0.00" arrivalSpeed="27.74" duration="130.50" routeLength="3149.27" waitingTime="0.00" waitingCount="0" stopTime="0.00" timeLoss="17.14" rerouteNo="1" devices="tripinfo_StaRosatoCalamba.9 routing_StaRosatoCalamba.9" vType="jeep" speedFactor="1.00" vaporized=""/>
    <tripinfo id="StaRosatoCalamba.5" depart="46.60" departLane="-549232953#10_2" departPos="7.20" departPosLat="0.00" departSpeed="26.39" departDelay="0.00" arrival="186.40" arrivalLane="-32425220#0_1" arrivalPos="290.87" arrivalPosLat="-0.00" arrivalSpeed="26.37" duration="139.80" routeLength="3150.17" waitingTime="3.60" waitingCount="1" stopTime="0.00" timeLoss="20.33" rerouteNo="1" devices="tripinfo_StaRosatoCalamba.5 routing_StaRosatoCalamba.5" vType="truck" speedFactor="0.95" vaporized=""/>
    <tripinfo id="StaRosatoCalamba.8" depart="53.80" departLane="-549232953#10_1" departPos="8.10" departPosLat="0.00" departSpeed="27.78" departDelay="0.00" arrival="187.70" arrivalLane="-32425220#0_1" arrivalPos="290.87" arrivalPosLat="0.00" arrivalSpeed="27.49" duration="133.90" routeLength="3149.27" waitingTime="0.00" waitingCount="0" stopTime="0.00" timeLoss="20.50" rerouteNo="1" devices="tripinfo_StaRosatoCalamba.8 routing_StaRosatoCalamba.8" vType="jeep" speedFactor="1.00" vaporized=""/>
    <tripinfo id="CalambatoBanlic-Mamatid.1" depart="54.60" departLane="32425220#0_1" departPos="5.10" departPosLat="0.00" departSpeed="28.75" departDelay="0.00" arrival="188.40" arrivalLane="-1346113028#0_1" arrivalPos="507.75" arrivalPosLat="0.00" arrivalSpeed="8.54" duration="133.80" routeLength="1737.47" waitingTime="0.00" waitingCount="0" stopTime="0.00" timeLoss="2.98" rerouteNo="1" devices="tripinfo_CalambatoBanlic-Mamatid.1 routing_CalambatoBanlic-Mamatid.1" vType="car" speedFactor="1.03" vaporized=""/>
    <personinfo id="SavemoretoJeepPila.1" depart="72.00" type="ped" speedFactor="1.17" duration="138.80" waitingTime="42.00" timeLoss="51.99" traveltime="138.80">
        <walk depart="72.00" departPos="0.00" arrival="210.80" arrivalPos="25.71" duration="138.80" routeLength="140.94" timeLoss="51.99" maxSpeed="1.62" waitingTime="42.00"/>
    </personinfo>
    <personinfo id="InasaltoPalengke.0" depart="0.00" type="ped" speedFactor="1.07" duration="219.00" waitingTime="182.70" timeLoss="186.51" traveltime="219.00">
        <walk depart="0.00" departPos="0.00" arrival="219.00" arrivalPos="34.28" duration="219.00" routeLength="48.06" timeLoss="186.51" maxSpeed="1.48" waitingTime="182.70"/>
    </personinfo>
    <personinfo id="SavemoretoJeepPila.0" depart="0.00" type="ped" speedFactor="0.85" duration="219.70" waitingTime="87.90" timeLoss="101.00" traveltime="219.70">
        <walk depart="0.00" departPos="0.00" arrival="219.70" arrivalPos="25.71" duration="219.70" routeLength="140.94" timeLoss="101.00" maxSpeed="1.19" waitingTime="87.90"/>
    </personinfo>
    <personinfo id="InasaltoPalengke.2" depart="144.00" type="ped" speedFactor="0.93" duration="78.30" waitingTime="36.90" timeLoss="40.97" traveltime="78.30">
        <walk depart="144.00" departPos="0.00" arrival="222.30" arrivalPos="34.28" duration="78.30" routeLength="48.06" timeLoss="40.97" maxSpeed="1.29" waitingTime="36.90"/>
    </personinfo>
    <personinfo id="InasaltoPalengke.1" depart="72.00" type="ped" speedFactor="0.92" duration="152.10" waitingTime="109.80" timeLoss="114.39" traveltime="152.10">
        <walk depart="72.00" departPos="0.00" arrival="224.10" arrivalPos="34.28" duration="152.10" routeLength="48.06" timeLoss="114.39" maxSpeed="1.27" waitingTime="109.80"/>
    </personinfo>
    <personinfo id="SavemoretoPalengke.0" depart="0.00" type="ped" speedFactor="1.06" duration="230.20" waitingTime="115.90" timeLoss="127.19" traveltime="230.20">
        <walk depart="0.00" departPos="0.00" arrival="230.20" arrivalPos="34.28" duration="230.20" routeLength="151.65" timeLoss="127.19" maxSpeed="1.47" waitingTime="115.90"/>
    </personinfo>
    <personinfo id="InasaltoSavemore.0" depart="0.00" type="ped" speedFactor="1.07" duration="230.40" waitingTime="182.90" timeLoss="188.20" traveltime="230.40">
        <walk depart="0.00" departPos="0.00" arrival="230.40" arrivalPos="44.65" duration="230.40" routeLength="62.53" timeLoss="188.20" maxSpeed="1.48" waitingTime="182.90"/>
    </personinfo>
    <personinfo id="PalengketoInasal.2" depart="144.00" type="ped" speedFactor="0.99" duration="86.90" waitingTime="39.70" timeLoss="44.30" traveltime="86.90">
        <walk depart="144.00" departPos="0.00" arrival="230.90" arrivalPos="44.65" duration="86.90" routeLength="58.43" timeLoss="44.30" maxSpeed="1.37" waitingTime="39.70"/>
    </personinfo>
    <personinfo id="SavemoretoInasal.0" depart="0.00" type="ped" speedFactor="1.06" duration="231.20" waitingTime="115.60" timeLoss="188.93" traveltime="231.20">
        <walk depart="0.00" departPos="0.00" arrival="231.20" arrivalPos="44.65" duration="231.20" routeLength="62.53" timeLoss="188.93" maxSpeed="1.48" waitingTime="115.60"/>
    </personinfo>
    <tripinfo id="StaRosatoNeighborhood.0" depart="127.10" departLane="-549232953#10_1" departPos="5.10" departPosLat="0.00" departSpeed="34.31" departDelay="0.00" arrival="232.50" arrivalLane="32425190#1_1" arrivalPos="142.43" arrivalPosLat="0.00" arrivalSpeed="17.07" duration="105.40" routeLength="2475.52" waitingTime="9.60" waitingCount="1" stopTime="0.00" timeLoss="26.87" rerouteNo="1" devices="tripinfo_StaRosatoNeighborhood.0 routing_StaRosatoNeighborhood.0" vType="car" speedFactor="1.24" vaporized=""/>
    <personinfo id="PalengketoInasal.0" depart="0.00" type="ped" speedFactor="0.93" duration="233.90" waitingTime="183.60" timeLoss="188.76" traveltime="233.90">
        <walk depart="0.00" departPos="0.00" arrival="233.90" arrivalPos="44.65" duration="233.90" routeLength="58.43" timeLoss="188.76" maxSpeed="1.29" waitingTime="183.60"/>
    </personinfo>
    <personinfo id="JeepPilatoSavemore.0" depart="0.00" type="ped" speedFactor="1.07" duration="235.50" waitingTime="182.20" timeLoss="188.01" traveltime="235.50">
        <walk depart="0.00" departPos="0.00" arrival="235.50" arrivalPos="44.65" duration="235.50" routeLength="70.59" timeLoss="188.01" maxSpeed="1.49" waitingTime="182.20"/>
    </personinfo>
    <personinfo id="SavemoretoPalengke.1" depart="72.00" type="ped" speedFactor="0.94" duration="164.20" waitingTime="34.20" timeLoss="47.83" traveltime="164.20">
        <walk depart="72.00" departPos="0.00" arrival="236.20" arrivalPos="34.28" duration="164.20" routeLength="151.65" timeLoss="47.83" maxSpeed="1.30" waitingTime="34.20"/>
    </personinfo>
    <personinfo id="PalengketoInasal.1" depart="72.00" type="ped" speedFactor="0.88" duration="164.50" waitingTime="111.10" timeLoss="116.58" traveltime="164.50">
        <walk depart="72.00" departPos="0.00" arrival="236.50" arrivalPos="44.65" duration="164.50" routeLength="58.43" timeLoss="116.58" maxSpeed="1.22" waitingTime="111.10"/>
    </personinfo>
    <personinfo id="InasaltoJeepPila.2" depart="144.00" type="ped" speedFactor="1.02" duration="92.70" waitingTime="39.80" timeLoss="45.47" traveltime="92.70">
        <walk depart="144.00" departPos="0.00" arrival="236.70" arrivalPos="25.71" duration="92.70" routeLength="67.08" timeLoss="45.47" maxSpeed="1.42" waitingTime="39.80"/>
    </personinfo>
    <personinfo id="SavemoretoInasal.1" depart="72.00" type="ped" speedFactor="0.96" duration="164.90" waitingTime="36.60" timeLoss="117.84" traveltime="164.90">
        <walk depart="72.00" departPos="0.00" arrival="236.90" arrivalPos="44.65" duration="164.90" routeLength="62.53" timeLoss="117.84" maxSpeed="1.33" waitingTime="36.60"/>
    </personinfo>
    <personinfo id="InasaltoJeepPila.0" depart="0.00" type="ped" speedFactor="0.97" duration="239.10" waitingTime="183.70" timeLoss="189.17" traveltime="239.10">
        <walk depart="0.00" departPos="0.00" arrival="239.10" arrivalPos="25.71" duration="239.10" routeLength="67.08" timeLoss="189.17" maxSpeed="1.34" waitingTime="183.70"/>
    </personinfo>
    <personinfo id="InasaltoSavemore.1" depart="72.00" type="ped" speedFactor="0.89" duration="167.70" waitingTime="111.20" timeLoss="117.07" traveltime="167.70">
        <walk depart="72.00" departPos="0.00" arrival="239.70" arrivalPos="44.65" duration="167.70" routeLength="62.53" timeLoss="117.07" maxSpeed="1.24" waitingTime="111.20"/>
    </personinfo>
    <personinfo id="InasaltoSavemore.2" depart="144.00" type="ped" speedFactor="0.98" duration="96.10" waitingTime="41.50" timeLoss="49.93" traveltime="96.10">
        <walk depart="144.00" departPos="0.00" arrival="240.10" arrivalPos="44.65" duration="96.10" routeLength="62.53" timeLoss="49.93" maxSpeed="1.35" waitingTime="41.50"/>
    </personinfo>
    <tripinfo id="StaRosatoBanlic-Mamatid.0" depart="18.00" departLane="-549232953#10_1" departPos="2.30" departPosLat="0.00" departSpeed="25.01" departDelay="0.00" arrival="241.10" arrivalLane="-1346113028#0_1" arrivalPos="507.75" arrivalPosLat="0.00" arrivalSpeed="7.41" duration="223.10" routeLength="3138.61" waitingTime="6.60" waitingCount="1" stopTime="0.00" timeLoss="16.43" rerouteNo="1" devices="tripinfo_StaRosatoBanlic-Mamatid.0 routing_StaRosatoBanlic-Mamatid.0" vType="tricycle" speedFactor="0.90" vaporized=""/>
    <personinfo id="JeepPilatoSavemore.1" depart="72.00" type="ped" speedFactor="0.94" duration="170.30" waitingTime="110.20" timeLoss="116.07" traveltime="170.30">
        <walk depart="72.00" departPos="0.00" arrival="242.30" arrivalPos="44.65" duration="170.30" routeLength="70.59" timeLoss="116.07" maxSpeed="1.30" waitingTime="110.20"/>
    </personinfo>
    <personinfo id="JeepPilatoSavemore.2" depart="144.00" type="ped" speedFactor="0.98" duration="98.70" waitingTime="39.40" timeLoss="46.88" traveltime="98.70">
        <walk depart="144.00" departPos="0.00" arrival="242.70" arrivalPos="44.65" duration="98.70" routeLength="70.59" timeLoss="46.88" maxSpeed="1.36" waitingTime="39.40"/>
    </personinfo>
    <personinfo id="PalengketoSavemore.1" depart="72.00" type="ped" speedFactor="1.00" duration="171.10" waitingTime="111.20" timeLoss="118.97" traveltime="171.10">
        <walk depart="72.00" departPos="0.00" arrival="243.10" arrivalPos="44.65" duration="171.10" routeLength="72.73" timeLoss="118.97" maxSpeed="1.40" waitingTime="111.20"/>
    </personinfo>
    <tripinfo id="StaRosatoBanlic-Mamatid.1" depart="42.70" departLane="-549232953#10_1" departPos="8.10" departPosLat="0.00" departSpeed="27.78" departDelay="0.00" arrival="243.10" arrivalLane="-1346113028#0_1" arrivalPos="507.75" arrivalPosLat="0.00" arrivalSpeed="8.32" duration="200.40" routeLength="3132.81" waitingTime="0.00" waitingCount="0" stopTime="0.00" timeLoss="14.54" rerouteNo="1" devices="tripinfo_StaRosatoBanlic-Mamatid.1 routing_StaRosatoBanlic-Mamatid.1" vType="jeep" speedFactor="1.00" vaporized=""/>
    <personinfo id="PalengketoSavemore.2" depart="144.00" type="ped" speedFactor="1.07" duration="99.50" waitingTime="42.60" timeLoss="50.62" traveltime="99.50">
        <walk depart="144.00" departPos="0.00" arrival="243.50" arrivalPos="44.65" duration="99.50" routeLength="72.73" timeLoss="50.62" maxSpeed="1.49" waitingTime="42.60"/>
    </personinfo>
    <personinfo id="PalengketoSavemore.0" depart="0.00" type="ped" speedFactor="0.96" duration="244.00" waitingTime="183.30" timeLoss="189.62" traveltime="244.00">
        <walk depart="0.00" departPos="0.00" arrival="244.00" arrivalPos="44.65" duration="244.00" routeLength="72.73" timeLoss="189.62" maxSpeed="1.34" waitingTime="183.30"/>
    </personinfo>
    <personinfo id="JeepPilatoInasal.0" depart="0.00" type="ped" speedFactor="0.98" duration="252.50" waitingTime="182.20" timeLoss="189.12" traveltime="252.50">
        <walk depart="0.00" departPos="0.00" arrival="252.50" arrivalPos="44.65" duration="252.50" routeLength="86.02" timeLoss="189.12" maxSpeed="1.36" waitingTime="182.20"/>
    </personinfo>
    <personinfo id="JeepPilatoInasal.2" depart="144.00" type="ped" speedFactor="1.02" duration="109.20" waitingTime="41.20" timeLoss="48.38" traveltime="109.20">
        <walk depart="144.00" departPos="0.00" arrival="253.20" arrivalPos="44.65" duration="109.20" routeLength="86.02" timeLoss="48.38" maxSpeed="1.41" waitingTime="41.20"/>
    </personinfo>
    <personinfo id="JeepPilatoInasal.1" depart="72.00" type="ped" speedFactor="1.03" duration="182.30" waitingTime="115.30" timeLoss="122.31" traveltime="182.30">
        <walk depart="72.00" departPos="0.00" arrival="254.30" arrivalPos="44.65" duration="182.30" routeLength="86.02" timeLoss="122.31" maxSpeed="1.43" waitingTime="115.30"/>
    </personinfo>
    <tripinfo id="NeighborhoodtoCalamba.1" depart="201.70" departLane="-32425190#1_1" departPos="5.10" departPosLat="0.00" departSpeed="14.75" departDelay="0.00" arrival="260.60" arrivalLane="-32425220#0_2" arrivalPos="290.87" arrivalPosLat="0.00" arrivalSpeed="29.37" duration="58.90" routeLength="1056.50" waitingTime="0.00" waitingCount="0" stopTime="0.00" timeLoss="15.71" rerouteNo="1" devices="tripinfo_NeighborhoodtoCalamba.1 routing_NeighborhoodtoCalamba.1" vType="car" speedFactor="1.06" vaporized=""/>
    <tripinfo id="NeighborhoodtoCalamba.2" depart="212.70" departLane="-32425190#1_1" departPos="5.10" departPosLat="0.00" departSpeed="12.87" departDelay="0.00" arrival="267.20" arrivalLane="-32425220#0_2" arrivalPos="290.87" arrivalPosLat="0.00" arrivalSpeed="25.67" duration="54.50" routeLength="1056.50" waitingTime="0.00" waitingCount="0" stopTime="0.00" timeLoss="5.11" rerouteNo="1" devices="tripinfo_NeighborhoodtoCalamba.2 routing_NeighborhoodtoCalamba.2" vType="car" speedFactor="0.93" vaporized=""/>
    <tripinfo id="CalambatoNeighborhood.1" depart="87.10" departLane="32425220#0_2" departPos="2.30" departPosLat="0.00" departSpeed="26.94" departDelay="0.00" arrival="267.70" arrivalLane="32425190#1_1" arrivalPos="142.43" arrivalPosLat="0.00" arrivalSpeed="13.22" duration="180.60" routeLength="1072.85" waitingTime="129.60" waitingCount="1" stopTime="0.00" timeLoss="132.32" rerouteNo="1" devices="tripinfo_CalambatoNeighborhood.1 routing_CalambatoNeighborhood.1" vType="motorcycle" speedFactor="0.97" vaporized=""/>
    <tripinfo id="CalambatoNeighborhood.2" depart="156.50" departLane="32425220#0_2" departPos="5.10" departPosLat="0.00" departSpeed="28.41" departDelay="0.00" arrival="281.10" arrivalLane="32425190#1_1" arrivalPos="142.43" arrivalPosLat="0.00" arrivalSpeed="14.16" duration="124.60" routeLength="1070.05" waitingTime="62.20" waitingCount="1" stopTime="0.00" timeLoss="78.89" rerouteNo="1" devices="tripinfo_CalambatoNeighborhood.2 routing_CalambatoNeighborhood.2" vType="car" speedFactor="1.02" vaporized=""/>
    <tripinfo id="StaRosatoBanlic-Mamatid.2" depart="84.00" departLane="-549232953#10_1" departPos="5.10" departPosLat="0.00" departSpeed="26.29" departDelay="0.00" arrival="283.10" arrivalLane="-1346113028#0_1" arrivalPos="507.75" arrivalPosLat="0.00" arrivalSpeed="7.76" duration="199.10" routeLength="3135.81" waitingTime="0.00" waitingCount="0" stopTime="0.00" timeLoss="2.62" rerouteNo="1" devices="tripinfo_StaRosatoBanlic-Mamatid.2 routing_StaRosatoBanlic-Mamatid.2" vType="car" speedFactor="0.95" vaporized=""/>
    <tripinfo id="StaRosatoBanlic-Mamatid.3" depart="91.80" departLane="-549232953#10_2" departPos="5.10" departPosLat="0.00" departSpeed="26.79" departDelay="0.00" arrival="287.40" arrivalLane="-1346113028#0_1" arrivalPos="507.75" arrivalPosLat="0.00" arrivalSpeed="7.96" duration="195.60" routeLength="3135.81" waitingTime="0.00" waitingCount="0" stopTime="0.00" timeLoss="2.71" rerouteNo="1" devices="tripinfo_StaRosatoBanlic-Mamatid.3 routing_StaRosatoBanlic-Mamatid.3" vType="car" speedFactor="0.96" vaporized=""/>
    <tripinfo id="NeighborhoodtoStaRosa.2" depart="117.10" departLane="-32425190#1_1" departPos="5.10" departPosLat="0.00" departSpeed="14.39" departDelay="0.00" arrival="308.70" arrivalLane="549232953#10_2" arrivalPos="967.06" arrivalPosLat="0.00" arrivalSpeed="28.75" duration="191.60" routeLength="2483.86" waitingTime="80.60" waitingCount="1" stopTime="0.00" timeLoss="97.49" rerouteNo="1" devices="tripinfo_NeighborhoodtoStaRosa.2 routing_NeighborhoodtoStaRosa.2" vType="car" speedFactor="1.04" vaporized=""/>
    <tripinfo id="CalambatoStaRosa.6" depart="57.10" departLane="32425220#0_1" departPos="5.10" departPosLat="0.00" departSpeed="27.41" departDelay="0.00" arrival="309.60" arrivalLane="549232953#10_1" arrivalPos="967.06" arrivalPosLat="0.00" arrivalSpeed="27.35" duration="252.50" routeLength="3155.57" waitingTime="122.60" waitingCount="1" stopTime="0.00" timeLoss="137.39" rerouteNo="1" devices="tripinfo_CalambatoStaRosa.6 routing_CalambatoStaRosa.6" vType="car" speedFactor="0.99" vaporized=""/>
    <tripinfo id="NeighborhoodtoStaRosa.1" depart="92.30" departLane="-32425190#1_1" departPos="2.30" departPosLat="0.00" departSpeed="11.28" departDelay="0.00" arrival="325.70" arrivalLane="549232953#10_1" arrivalPos="967.06" arrivalPosLat="0.00" arrivalSpeed="22.47" duration="233.40" routeLength="2486.66" waitingTime="105.70" waitingCount="1" stopTime="0.00" timeLoss="113.12" rerouteNo="1" devices="tripinfo_NeighborhoodtoStaRosa.1 routing_NeighborhoodtoStaRosa.1" vType="tricycle" speedFactor="0.81" vaporized=""/>
    <tripinfo id="CalambatoBanlic-Mamatid.2" depart="62.80" departLane="32425220#0_1" departPos="5.10" departPosLat="0.00" departSpeed="25.82" departDelay="0.00" arrival="331.50" arrivalLane="-1346113028#0_1" arrivalPos="507.75" arrivalPosLat="0.00" arrivalSpeed="7.63" duration="268.70" routeLength="1737.47" waitingTime="109.10" waitingCount="1" stopTime="0.00" timeLoss="123.02" rerouteNo="1" devices="tripinfo_CalambatoBanlic-Mamatid.2 routing_CalambatoBanlic-Mamatid.2" vType="car" speedFactor="0.93" vaporized=""/>
    <tripinfo id="StaRosatoCalamba.12" depart="129.90" departLane="-549232953#10_1" departPos="8.10" departPosLat="0.00" departSpeed="27.78" departDelay="0.00" arrival="332.10" arrivalLane="-32425220#0_1" arrivalPos="290.87" arrivalPosLat="0.00" arrivalSpeed="27.72" duration="202.20" routeLength="3149.27" waitingTime="53.00" waitingCount="2" stopTime="0.00" timeLoss="88.81" rerouteNo="1" devices="tripinfo_StaRosatoCalamba.12 routing_StaRosatoCalamba.12" vType="jeep" speedFactor="1.00" vaporized=""/>
    <tripinfo id="StaRosatoCalamba.11" depart="128.20" departLane="-549232953#10_2" departPos="8.10" departPosLat="0.00" departSpeed="27.78" departDelay="0.00" arrival="332.30" arrivalLane="-32425220#0_2" arrivalPos="290.87" arrivalPosLat="0.00" arrivalSpeed="27.78" duration="204.10" routeLength="3149.27" waitingTime="61.60" waitingCount="1" stopTime="0.00" timeLoss="90.65" rerouteNo="1" devices="tripinfo_StaRosatoCalamba.11 routing_StaRosatoCalamba.11" vType="jeep" speedFactor="1.00" vaporized=""/>
    <tripinfo id="NeighborhoodtoBanlic-Mamatid.0" depart="134.80" departLane="-32425190#1_1" departPos="5.10" departPosLat="0.00" departSpeed="14.69" departDelay="0.00" arrival="333.30" arrivalLane="-1346113028#0_1" arrivalPos="507.75" arrivalPosLat="0.00" arrivalSpeed="8.76" duration="198.50" routeLength="1065.76" waitingTime="64.10" waitingCount="1" stopTime="0.00" timeLoss="85.69" rerouteNo="1" devices="tripinfo_NeighborhoodtoBanlic-Mamatid.0 routing_NeighborhoodtoBanlic-Mamatid.0" vType="car" speedFactor="1.06" vaporized=""/>