<?xml version="1.0" encoding="UTF-8"?>

<!-- generated on 2026-02-16 02:11:56 by Eclipse SUMO sumo Version 1.24.0
<sumoConfiguration xmlns:xsi="http://www.w3.org/2001/XMLSchema-instance" xsi:noNamespaceSchemaLocation="http://sumo.dlr.de/xsd/sumoConfiguration.xsd">

    <input>
        <net-file value="Olivarez_traci\network/baseline.net.xml"/>
        <route-files value="Olivarez_traci\demand/flows_slow_traffic.rou.xml"/>
        <additional-files value="Olivarez_traci\additionals/map.poly.xml,Olivarez_traci\ additionals/detectors.add.xml"/>
    </input>

    <output>
        <tripinfo-output value="Olivarez_traci\output_A2C_Baseline\A2C_Baseline_trips.xml"/>
        <statistic-output value="Olivarez_traci\output_A2C_Baseline\A2C_Baseline_stats.xml"/>
    </output>

    <time>
        <begin value="0"/>
        <end value="10800"/>
        <step-length value="0.05"/>
    </time>

    <processing>
        <lateral-resolution value="0.1"/>
        <collision.action value="none"/>
        <collision.check-junctions value="false"/>
        <collision.mingap-factor value="0"/>
    </processing>

    <report>
        <no-warnings value="true"/>
    </report>

    <traci_server>
        <remote-port value="60622"/>
    </traci_server>

    <gui_only>
        <delay value="0"/>
    </gui_only>

</sumoConfiguration>
-->

<tripinfos xmlns:xsi="http://www.w3.org/2001/XMLSchema-instance" xsi:noNamespaceSchemaLocation="http://sumo.dlr.de/xsd/tripinfo_file.xsd">
    <personinfo id="pf_2.0" depart="0.00" type="ped" speedFactor="0.88" duration="28.05" waitingTime="0.00" timeLoss="2.87" traveltime="28.05">
        <walk depart="0.00" departPos="15.09" arrival="28.05" arrivalPos="3.44" duration="28.05" routeLength="30.72" timeLoss="2.87" maxSpeed="1.22" waitingTime="0.00"/>
    </personinfo>
    <personinfo id="pf_2.1" depart="22.50" type="ped" speedFactor="1.08" duration="22.70" waitingTime="0.00" timeLoss="2.17" traveltime="22.70">
        <walk depart="22.50" departPos="15.09" arrival="45.20" arrivalPos="3.44" duration="22.70" routeLength="30.72" timeLoss="2.17" maxSpeed="1.50" waitingTime="0.00"/>
    </personinfo>
    <tripinfo id="D3_1.0" depart="7.65" departLane="140483224#1_2" departPos="5.10" departPosLat="0.00" departSpeed="29.35" departDelay="0.00" arrival="60.70" arrivalLane="-440471861#0_2" arrivalPos="31.52" arrivalPosLat="0.00" arrivalSpeed="29.35" duration="53.05" routeLength="1067.97" waitingTime="6.15" waitingCount="1" stopTime="0.00" timeLoss="15.18" rerouteNo="1" devices="tripinfo_D3_1.0 routing_D3_1.0" vType="car" speedFactor="1.06" vaporized=""/>
    <tripinfo id="D1_1.0" depart="0.60" departLane="140483224#1_1" departPos="5.10" departPosLat="0.00" departSpeed="27.86" departDelay="0.00" arrival="75.20" arrivalLane="-793339796#2_2" arrivalPos="82.50" arrivalPosLat="0.00" arrivalSpeed="27.83" duration="74.60" routeLength="1648.38" waitingTime="0.00" waitingCount="0" stopTime="0.00" timeLoss="13.08" rerouteNo="1" devices="tripinfo_D1_1.0 routing_D1_1.0" vType="car" speedFactor="1.00" vaporized=""/>
    <personinfo id="pf_2.2" depart="45.00" type="ped" speedFactor="0.99" duration="39.70" waitingTime="14.95" timeLoss="17.42" traveltime="39.70">
        <walk depart="45.00" departPos="15.09" arrival="84.70" arrivalPos="3.44" duration="39.70" routeLength="30.72" timeLoss="17.42" maxSpeed="1.38" waitingTime="14.95"/>
    </personinfo>
    <tripinfo id="A2_1.0" depart="4.45" departLane="-793339796#2_1" departPos="5.10" departPosLat="0.00" departSpeed="28.99" departDelay="0.00" arrival="86.25" arrivalLane="-440471861#0_1" arrivalPos="31.52" arrivalPosLat="0.00" arrivalSpeed="28.94" duration="81.80" routeLength="1081.27" waitingTime="34.00" waitingCount="1" stopTime="0.00" timeLoss="44.47" rerouteNo="1" devices="tripinfo_A2_1.0 routing_A2_1.0" vType="car" speedFactor="1.04" vaporized=""/>
    <tripinfo id="A2_1.1" depart="8.20" departLane="-793339796#2_1" departPos="5.10" departPosLat="0.00" departSpeed="26.62" departDelay="0.00" arrival="87.35" arrivalLane="-440471861#0_2" arrivalPos="31.52" arrivalPosLat="0.00" arrivalSpeed="26.60" duration="79.15" routeLength="1081.27" waitingTime="27.20" waitingCount="1" stopTime="0.00" timeLoss="38.53" rerouteNo="1" devices="tripinfo_A2_1.1 routing_A2_1.1" vType="car" speedFactor="0.96" vaporized=""/>
    <personinfo id="pf_2.3" depart="67.50" type="ped" speedFactor="1.13" duration="29.70" waitingTime="7.90" timeLoss="10.07" traveltime="29.70">
        <walk depart="67.50" departPos="15.09" arrival="97.20" arrivalPos="3.44" duration="29.70" routeLength="30.72" timeLoss="10.07" maxSpeed="1.57" waitingTime="7.90"/>
    </personinfo>
    <personinfo id="pf_2.4" depart="90.00" type="ped" speedFactor="1.05" duration="27.65" waitingTime="4.30" timeLoss="6.62" traveltime="27.65">
        <walk depart="90.00" departPos="15.09" arrival="117.65" arrivalPos="3.44" duration="27.65" routeLength="30.72" timeLoss="6.62" maxSpeed="1.46" waitingTime="4.30"/>
    </personinfo>
    <personinfo id="pf_4.0" depart="0.00" type="ped" speedFactor="1.03" duration="118.60" waitingTime="3.45" timeLoss="14.74" traveltime="118.60">
        <walk depart="0.00" departPos="25.00" arrival="55.90" arrivalPos="29.11" duration="55.90" routeLength="72.15" timeLoss="5.39" maxSpeed="1.43" waitingTime="0.00"/>
        <walk depart="55.90" departPos="29.11" arrival="118.60" arrivalPos="29.05" duration="62.70" routeLength="76.20" timeLoss="9.35" maxSpeed="1.43" waitingTime="3.45"/>
    </personinfo>
    <tripinfo id="D1_1.1" depart="37.25" departLane="140483224#1_1" departPos="12.10" departPosLat="0.00" departSpeed="27.78" departDelay="0.00" arrival="122.70" arrivalLane="-793339796#2_2" arrivalPos="82.50" arrivalPosLat="0.00" arrivalSpeed="24.49" duration="85.45" routeLength="1641.38" waitingTime="0.00" waitingCount="0" stopTime="0.00" timeLoss="24.05" rerouteNo="1" devices="tripinfo_D1_1.1 routing_D1_1.1" vType="bus" speedFactor="1.00" vaporized=""/>
    <tripinfo id="D1_1.3" depart="58.55" departLane="140483224#1_1" departPos="5.10" departPosLat="0.00" departSpeed="34.31" departDelay="0.00" arrival="125.25" arrivalLane="-793339796#2_2" arrivalPos="82.50" arrivalPosLat="0.00" arrivalSpeed="34.26" duration="66.70" routeLength="1648.38" waitingTime="0.00" waitingCount="0" stopTime="0.00" timeLoss="16.78" rerouteNo="1" devices="tripinfo_D1_1.3 routing_D1_1.3" vType="car" speedFactor="1.24" vaporized=""/>
    <personinfo id="pf_2.5" depart="112.50" type="ped" speedFactor="0.91" duration="26.85" waitingTime="0.00" timeLoss="2.66" traveltime="26.85">
        <walk depart="112.50" departPos="15.09" arrival="139.35" arrivalPos="3.44" duration="26.85" routeLength="30.72" timeLoss="2.66" maxSpeed="1.27" waitingTime="0.00"/>
    </personinfo>
    <tripinfo id="C1_1.3" depart="71.00" departLane="440471861#0_1" departPos="5.10" departPosLat="0.00" departSpeed="29.37" departDelay="0.00" arrival="143.80" arrivalLane="-793339796#2_2" arrivalPos="82.50" arrivalPosLat="0.00" arrivalSpeed="29.31" duration="72.80" routeLength="1653.99" waitingTime="0.00" waitingCount="0" stopTime="0.00" timeLoss="15.39" rerouteNo="1" devices="tripinfo_C1_1.3 routing_C1_1.3" vType="car" speedFactor="1.06" vaporized=""/>
    <tripinfo id="D1_1.2" depart="46.15" departLane="140483224#1_1" departPos="7.20" departPosLat="0.00" departSpeed="25.39" departDelay="0.00" arrival="145.60" arrivalLane="-793339796#2_1" arrivalPos="82.50" arrivalPosLat="-0.00" arrivalSpeed="25.27" duration="99.45" routeLength="1646.28" waitingTime="1.25" waitingCount="1" stopTime="0.00" timeLoss="32.03" rerouteNo="1" devices="tripinfo_D1_1.2 routing_D1_1.2" vType="truck" speedFactor="0.91" vaporized=""/>
    <tripinfo id="C3_1.0" depart="11.40" departLane="440471861#0_1" departPos="5.10" departPosLat="0.00" departSpeed="28.45" departDelay="0.00" arrival="147.70" arrivalLane="-140483224#1_2" arrivalPos="64.04" arrivalPosLat="0.00" arrivalSpeed="28.39" duration="136.30" routeLength="1052.78" waitingTime="87.50" waitingCount="1" stopTime="0.00" timeLoss="97.95" rerouteNo="1" devices="tripinfo_C3_1.0 routing_C3_1.0" vType="car" speedFactor="1.02" vaporized=""/>
    <tripinfo id="C3_1.2" depart="78.25" departLane="440471861#0_1" departPos="5.10" departPosLat="0.00" departSpeed="27.91" departDelay="0.00" arrival="152.50" arrivalLane="-140483224#1_1" arrivalPos="64.04" arrivalPosLat="0.00" arrivalSpeed="27.86" duration="74.25" routeLength="1052.78" waitingTime="16.75" waitingCount="1" stopTime="0.00" timeLoss="35.17" rerouteNo="1" devices="tripinfo_C3_1.2 routing_C3_1.2" vType="car" speedFactor="1.00" vaporized=""/>
    <personinfo id="pf_4.1" depart="22.50" type="ped" speedFactor="1.04" duration="130.85" waitingTime="16.90" timeLoss="28.52" traveltime="130.85">
        <walk depart="22.50" departPos="25.00" arrival="77.85" arrivalPos="29.11" duration="55.35" routeLength="72.15" timeLoss="5.58" maxSpeed="1.45" waitingTime="0.00"/>
        <walk depart="77.85" departPos="29.11" arrival="153.35" arrivalPos="29.05" duration="75.50" routeLength="76.20" timeLoss="22.94" maxSpeed="1.45" waitingTime="16.90"/>
    </personinfo>
    <tripinfo id="C3_1.1" depart="43.55" departLane="440471861#0_1" departPos="7.20" departPosLat="0.00" departSpeed="26.91" departDelay="0.00" arrival="154.20" arrivalLane="-140483224#1_2" arrivalPos="64.04" arrivalPosLat="0.00" arrivalSpeed="26.88" duration="110.65" routeLength="1050.68" waitingTime="37.55" waitingCount="3" stopTime="0.00" timeLoss="70.20" rerouteNo="1" devices="tripinfo_C3_1.1 routing_C3_1.1" vType="truck" speedFactor="0.97" vaporized=""/>
    <tripinfo id="C1_1.0" depart="17.65" departLane="440471861#0_1" departPos="8.10" departPosLat="0.00" departSpeed="27.78" departDelay="0.00" arrival="155.00" arrivalLane="-793339796#2_2" arrivalPos="82.50" arrivalPosLat="0.00" arrivalSpeed="24.60" duration="137.35" routeLength="1650.99" waitingTime="39.70" waitingCount="1" stopTime="0.00" timeLoss="76.81" rerouteNo="1" devices="tripinfo_C1_1.0 routing_C1_1.0" vType="jeep" speedFactor="1.00" vaporized=""/>
    <personinfo id="pf_4.2" depart="45.00" type="ped" speedFactor="1.08" duration="111.10" waitingTime="1.10" timeLoss="12.21" traveltime="111.10">
        <walk depart="45.00" departPos="25.00" arrival="99.65" arrivalPos="29.11" duration="54.65" routeLength="72.15" timeLoss="6.56" maxSpeed="1.50" waitingTime="1.10"/>
        <walk depart="99.65" departPos="29.11" arrival="156.10" arrivalPos="29.05" duration="56.45" routeLength="76.20" timeLoss="5.66" maxSpeed="1.50" waitingTime="0.00"/>
    </personinfo>
    <tripinfo id="C1_1.2" depart="41.05" departLane="440471861#0_1" departPos="5.10" departPosLat="0.00" departSpeed="30.59" departDelay="0.00" arrival="156.25" arrivalLane="-793339796#2_2" arrivalPos="82.50" arrivalPosLat="0.00" arrivalSpeed="26.19" duration="115.20" routeLength="1653.99" waitingTime="17.30" waitingCount="1" stopTime="0.00" timeLoss="60.05" rerouteNo="1" devices="tripinfo_C1_1.2 routing_C1_1.2" vType="car" speedFactor="1.10" vaporized=""/>
    <tripinfo id="B2_1.0" depart="31.00" departLane="-361257727#0_1" departPos="5.10" departPosLat="0.00" departSpeed="8.11" departDelay="0.00" arrival="156.35" arrivalLane="-440471861#0_1" arrivalPos="31.52" arrivalPosLat="-0.00" arrivalSpeed="27.02" duration="125.35" routeLength="1397.68" waitingTime="0.00" waitingCount="0" stopTime="0.00" timeLoss="5.01" rerouteNo="1" devices="tripinfo_B2_1.0 routing_B2_1.0" vType="car" speedFactor="0.97" vaporized=""/>
    <tripinfo id="C1_1.1" depart="31.85" departLane="440471861#0_1" departPos="5.10" departPosLat="0.00" departSpeed="25.38" departDelay="0.00" arrival="157.50" arrivalLane="-793339796#2_1" arrivalPos="82.50" arrivalPosLat="0.00" arrivalSpeed="25.37" duration="125.65" routeLength="1653.99" waitingTime="34.30" waitingCount="1" stopTime="0.00" timeLoss="59.27" rerouteNo="1" devices="tripinfo_C1_1.1 routing_C1_1.1" vType="car" speedFactor="0.91" vaporized=""/>
    <tripinfo id="C3_1.3" depart="104.00" departLane="440471861#0_1" departPos="8.10" departPosLat="0.00" departSpeed="27.78" departDelay="0.00" arrival="157.60" arrivalLane="-140483224#1_1" arrivalPos="64.04" arrivalPosLat="0.00" arrivalSpeed="27.77" duration="53.60" routeLength="1049.78" waitingTime="0.00" waitingCount="0" stopTime="0.00" timeLoss="14.45" rerouteNo="1" devices="tripinfo_C3_1.3 routing_C3_1.3" vType="jeep" speedFactor="1.00" vaporized=""/>
    <personinfo id="pf_2.6" depart="135.00" type="ped" speedFactor="1.00" duration="24.30" waitingTime="0.00" timeLoss="2.28" traveltime="24.30">
        <walk depart="135.00" departPos="15.09" arrival="159.30" arrivalPos="3.44" duration="24.30" routeLength="30.72" timeLoss="2.28" maxSpeed="1.39" waitingTime="0.00"/>
    </personinfo>
    <tripinfo id="C2_1.0" depart="20.15" departLane="440471861#0_2" departPos="2.30" departPosLat="0.00" departSpeed="25.10" departDelay="0.00" arrival="161.25" arrivalLane="-145894807#0_1" arrivalPos="260.95" arrivalPosLat="0.00" arrivalSpeed="7.51" duration="141.10" routeLength="1084.86" waitingTime="34.40" waitingCount="1" stopTime="0.00" timeLoss="46.64" rerouteNo="1" devices="tripinfo_C2_1.0 routing_C2_1.0" vType="motorcycle" speedFactor="0.90" vaporized=""/>
    <personinfo id="pf_2.7" depart="157.50" type="ped" speedFactor="1.03" duration="26.05" waitingTime="2.20" timeLoss="4.57" traveltime="26.05">
        <walk depart="157.50" departPos="15.09" arrival="183.55" arrivalPos="3.44" duration="26.05" routeLength="30.72" timeLoss="4.57" maxSpeed="1.43" waitingTime="2.20"/>
    </personinfo>
    <tripinfo id="B1_1.0" depart="37.80" departLane="-361257727#0_1" departPos="5.10" departPosLat="0.00" departSpeed="8.63" departDelay="0.00" arrival="184.30" arrivalLane="-793339796#2_2" arrivalPos="82.50" arrivalPosLat="0.00" arrivalSpeed="28.78" duration="146.50" routeLength="1915.44" waitingTime="0.00" waitingCount="0" stopTime="0.00" timeLoss="16.54" rerouteNo="1" devices="tripinfo_B1_1.0 routing_B1_1.0" vType="car" speedFactor="1.04" vaporized=""/>
    <tripinfo id="B2_1.1" depart="64.60" departLane="-361257727#0_1" departPos="12.10" departPosLat="0.00" departSpeed="8.33" departDelay="0.00" arrival="191.70" arrivalLane="-440471861#0_1" arrivalPos="31.52" arrivalPosLat="0.00" arrivalSpeed="27.76" duration="127.10" routeLength="1390.68" waitingTime="0.00" waitingCount="0" stopTime="0.00" timeLoss="10.82" rerouteNo="1" devices="tripinfo_B2_1.1 routing_B2_1.1" vType="bus" speedFactor="1.00" vaporized=""/>
    <personinfo id="pf_4.3" depart="67.50" type="ped" speedFactor="0.99" duration="125.15" waitingTime="5.65" timeLoss="17.58" traveltime="125.15">
        <walk depart="67.50" departPos="25.00" arrival="131.35" arrivalPos="29.11" duration="63.85" routeLength="72.15" timeLoss="11.53" maxSpeed="1.38" waitingTime="5.65"/>
        <walk depart="131.35" departPos="29.11" arrival="192.65" arrivalPos="29.05" duration="61.30" routeLength="76.20" timeLoss="6.04" maxSpeed="1.38" waitingTime="0.00"/>
    </personinfo>
    <tripinfo id="B2_1.2" depart="75.15" departLane="-361257727#0_1" departPos="7.20" departPosLat="0.00" departSpeed="8.24" departDelay="0.00" arrival="203.10" arrivalLane="-440471861#0_1" arrivalPos="31.52" arrivalPosLat="0.00" arrivalSpeed="27.45" duration="127.95" routeLength="1395.58" waitingTime="0.00" waitingCount="0" stopTime="0.00" timeLoss="9.84" rerouteNo="1" devices="tripinfo_B2_1.2 routing_B2_1.2" vType="truck" speedFactor="0.99" vaporized=""/>
    <personinfo id="pf_2.8" depart="180.00" type="ped" speedFactor="0.98" duration="24.95" waitingTime="0.00" timeLoss="2.47" traveltime="24.95">
        <walk depart="180.00" departPos="15.09" arrival="204.95" arrivalPos="3.44" duration="24.95" routeLength="30.72" timeLoss="2.47" maxSpeed="1.37" waitingTime="0.00"/>
    </personinfo>
    <tripinfo id="D3_1.1" depart="100.85" departLane="140483224#1_2" departPos="5.10" departPosLat="0.00" departSpeed="24.64" departDelay="0.00" arrival="208.80" arrivalLane="-440471861#0_2" arrivalPos="31.52" arrivalPosLat="0.00" arrivalSpeed="24.59" duration="107.95" routeLength="1067.97" waitingTime="54.65" waitingCount="1" stopTime="0.00" timeLoss="62.88" rerouteNo="1" devices="tripinfo_D3_1.1 routing_D3_1.1" vType="car" speedFactor="0.89" vaporized=""/>
    <personinfo id="pf_4.5" depart="112.50" type="ped" speedFactor="1.08" duration="110.00" waitingTime="0.35" timeLoss="11.44" traveltime="110.00">
        <walk depart="112.50" departPos="25.00" arrival="165.80" arrivalPos="29.11" duration="53.30" routeLength="72.15" timeLoss="5.37" maxSpeed="1.51" waitingTime="0.00"/>
        <walk depart="165.80" departPos="29.11" arrival="222.50" arrivalPos="29.05" duration="56.70" routeLength="76.20" timeLoss="6.07" maxSpeed="1.51" waitingTime="0.35"/>
    </personinfo>
    <personinfo id="pf_4.4" depart="90.00" type="ped" speedFactor="0.98" duration="134.20" waitingTime="13.25" timeLoss="25.43" traveltime="134.20">
        <walk depart="90.00" departPos="25.00" arrival="155.45" arrivalPos="29.11" duration="65.45" routeLength="72.15" timeLoss="12.55" maxSpeed="1.36" waitingTime="6.70"/>
        <walk depart="155.45" departPos="29.11" arrival="224.20" arrivalPos="29.05" duration="68.75" routeLength="76.20" timeLoss="12.88" maxSpeed="1.36" waitingTime="6.55"/>
    </personinfo>
    <tripinfo id="D1_1.4" depart="118.00" departLane="140483224#1_1" departPos="2.30" departPosLat="0.00" departSpeed="31.39" departDelay="0.00" arrival="226.85" arrivalLane="-793339796#2_2" arrivalPos="82.50" arrivalPosLat="0.00" arrivalSpeed="31.38" duration="108.85" routeLength="1651.18" waitingTime="18.75" waitingCount="2" stopTime="0.00" timeLoss="54.15" rerouteNo="1" devices="tripinfo_D1_1.4 routing_D1_1.4" vType="tricycle" speedFactor="1.13" vaporized=""/>
    <tripinfo id="A2_1.2" depart="76.20" departLane="-793339796#2_1" departPos="8.10" departPosLat="0.00" departSpeed="27.78" departDelay="11.25" arrival="233.35" arrivalLane="-440471861#0_1" arrivalPos="31.52" arrivalPosLat="0.00" arrivalSpeed="27.76" duration="157.15" routeLength="1078.27" waitingTime="98.90" waitingCount="1" stopTime="0.00" timeLoss="118.30" rerouteNo="1" devices="tripinfo_A2_1.2 routing_A2_1.2" vType="jeep" speedFactor="1.00" vaporized=""/>
    <personinfo id="pf_4.6" depart="135.00" type="ped" speedFactor="1.24" duration="98.90" waitingTime="3.65" timeLoss="12.84" traveltime="98.90">
        <walk depart="135.00" departPos="25.00" arrival="181.40" arrivalPos="29.11" duration="46.40" routeLength="72.15" timeLoss="4.54" maxSpeed="1.72" waitingTime="0.00"/>
        <walk depart="181.40" departPos="29.11" arrival="233.90" arrivalPos="29.05" duration="52.50" routeLength="76.20" timeLoss="8.30" maxSpeed="1.72" waitingTime="3.65"/>
    </personinfo>
    <personinfo id="pf_2.9" depart="202.50" type="ped" speedFactor="0.94" duration="32.30" waitingTime="6.20" timeLoss="8.77" traveltime="32.30">
        <walk depart="202.50" departPos="15.09" arrival="234.80" arrivalPos="3.44" duration="32.30" routeLength="30.72" timeLoss="8.77" maxSpeed="1.31" waitingTime="6.20"/>
    </personinfo>
    <personinfo id="pf_1.0" depart="0.00" type="ped" speedFactor="1.06" duration="235.05" waitingTime="0.00" timeLoss="23.35" traveltime="235.05">
        <walk depart="0.00" departPos="25.00" arrival="235.05" arrivalPos="3.44" duration="235.05" routeLength="311.67" timeLoss="23.35" maxSpeed="1.47" waitingTime="0.00"/>
    </personinfo>
    <tripinfo id="A2_1.3" depart="167.30" departLane="-793339796#2_2" departPos="7.20" departPosLat="0.00" departSpeed="24.83" departDelay="10.85" arrival="235.30" arrivalLane="-440471861#0_1" arrivalPos="31.52" arrivalPosLat="-0.00" arrivalSpeed="24.82" duration="68.00" routeLength="1079.17" waitingTime="0.00" waitingCount="0" stopTime="0.00" timeLoss="24.51" rerouteNo="1" devices="tripinfo_A2_1.3 routing_A2_1.3" vType="truck" speedFactor="0.89" vaporized=""/>
    <tripinfo id="A3_1.1" depart="142.45" departLane="-793339796#2_2" departPos="5.10" departPosLat="0.00" departSpeed="29.56" departDelay="45.75" arrival="238.25" arrivalLane="-140483224#1_1" arrivalPos="64.04" arrivalPosLat="-0.00" arrivalSpeed="33.00" duration="95.80" routeLength="1080.94" waitingTime="31.95" waitingCount="1" stopTime="0.00" timeLoss="61.81" rerouteNo="1" devices="tripinfo_A3_1.1 routing_A3_1.1" vType="car" speedFactor="1.19" vaporized=""/>
    <tripinfo id="A3_1.3" depart="143.20" departLane="-793339796#2_2" departPos="5.10" departPosLat="0.00" departSpeed="20.54" departDelay="32.15" arrival="242.55" arrivalLane="-140483224#1_2" arrivalPos="64.04" arrivalPosLat="-0.00" arrivalSpeed="28.35" duration="99.35" routeLength="1080.94" waitingTime="32.65" waitingCount="1" stopTime="0.00" timeLoss="59.83" rerouteNo="1" devices="tripinfo_A3_1.3 routing_A3_1.3" vType="car" speedFactor="1.02" vaporized=""/>
    <tripinfo id="A3_1.0" depart="63.55" departLane="-793339796#2_2" departPos="8.10" departPosLat="0.00" departSpeed="27.78" departDelay="0.00" arrival="243.10" arrivalLane="-140483224#1_1" arrivalPos="64.04" arrivalPosLat="-0.00" arrivalSpeed="27.77" duration="179.55" routeLength="1077.94" waitingTime="112.50" waitingCount="2" stopTime="0.00" timeLoss="139.25" rerouteNo="1" devices="tripinfo_A3_1.0 routing_A3_1.0" vType="jeep" speedFactor="1.00" vaporized=""/>
    <tripinfo id="D1_1.5" depart="157.60" departLane="140483224#1_1" departPos="12.10" departPosLat="0.00" departSpeed="27.78" departDelay="0.00" arrival="243.95" arrivalLane="-793339796#2_2" arrivalPos="82.50" arrivalPosLat="0.00" arrivalSpeed="24.18" duration="86.35" routeLength="1641.38" waitingTime="0.00" waitingCount="0" stopTime="0.00" timeLoss="24.92" rerouteNo="1" devices="tripinfo_D1_1.5 routing_D1_1.5" vType="bus" speedFactor="1.00" vaporized=""/>
    <tripinfo id="A3_1.4" depart="143.60" departLane="-793339796#2_2" departPos="5.10" departPosLat="0.00" departSpeed="17.08" departDelay="29.80" arrival="245.15" arrivalLane="-140483224#1_2" arrivalPos="64.04" arrivalPosLat="0.00" arrivalSpeed="24.76" duration="101.55" routeLength="1080.94" waitingTime="31.55" waitingCount="2" stopTime="0.00" timeLoss="56.26" rerouteNo="1" devices="tripinfo_A3_1.4 routing_A3_1.4" vType="car" speedFactor="0.89" vaporized=""/>
    <tripinfo id="A3_1.5" depart="144.05" departLane="-793339796#2_2" departPos="5.10" departPosLat="0.00" departSpeed="13.92" departDelay="2.95" arrival="246.40" arrivalLane="-140483224#1_2" arrivalPos="64.04" arrivalPosLat="0.00" arrivalSpeed="26.79" duration="102.35" routeLength="1080.94" waitingTime="32.40" waitingCount="1" stopTime="0.00" timeLoss="60.49" rerouteNo="1" devices="tripinfo_A3_1.5 routing_A3_1.5" vType="car" speedFactor="0.97" vaporized=""/>
    <tripinfo id="A1_1.0" depart="142.80" departLane="-793339796#2_1" departPos="5.10" departPosLat="0.00" departSpeed="18.62" departDelay="63.85" arrival="247.50" arrivalLane="-145894807#0_1" arrivalPos="260.95" arrivalPosLat="0.00" arrivalSpeed="7.35" duration="104.70" routeLength="1056.72" waitingTime="0.00" waitingCount="0" stopTime="0.00" timeLoss="3.39" rerouteNo="1" devices="tripinfo_A1_1.0 routing_A1_1.0" vType="car" speedFactor="0.88" vaporized=""/>
    <tripinfo id="A3_1.2" depart="142.85" departLane="-793339796#2_2" departPos="8.10" departPosLat="0.00" departSpeed="24.31" departDelay="35.55" arrival="248.25" arrivalLane="-140483224#1_1" arrivalPos="64.04" arrivalPosLat="-0.00" arrivalSpeed="27.75" duration="105.40" routeLength="1077.94" waitingTime="29.85" waitingCount="2" stopTime="0.00" timeLoss="65.04" rerouteNo="1" devices="tripinfo_A3_1.2 routing_A3_1.2" vType="jeep" speedFactor="1.00" vaporized=""/>
    <tripinfo id="A3_1.6" depart="148.50" departLane="-793339796#2_1" departPos="12.10" departPosLat="0.00" departSpeed="27.40" departDelay="0.00" arrival="249.40" arrivalLane="-140483224#1_2" arrivalPos="64.04" arrivalPosLat="0.00" arrivalSpeed="27.76" duration="100.90" routeLength="1073.94" waitingTime="26.50" waitingCount="2" stopTime="0.00" timeLoss="60.74" rerouteNo="1" devices="tripinfo_A3_1.6 routing_A3_1.6" vType="bus" speedFactor="1.00" vaporized=""/>
    <tripinfo id="A1_1.1" depart="143.40" departLane="-793339796#2_1" departPos="8.10" departPosLat="0.00" departSpeed="14.98" departDelay="17.75" arrival="249.45" arrivalLane="-145894807#0_1" arrivalPos="260.95" arrivalPosLat="0.00" arrivalSpeed="8.30" duration="106.05" routeLength="1053.72" waitingTime="0.00" waitingCount="0" stopTime="0.00" timeLoss="16.64" rerouteNo="1" devices="tripinfo_A1_1.1 routing_A1_1.1" vType="jeep" speedFactor="1.00" vaporized=""/>
    <personinfo id="pf_2.10" depart="225.00" type="ped" speedFactor="1.09" duration="26.70" waitingTime="4.00" timeLoss="6.35" traveltime="26.70">
        <walk depart="225.00" departPos="15.09" arrival="251.70" arrivalPos="3.44" duration="26.70" routeLength="30.72" timeLoss="6.35" maxSpeed="1.51" waitingTime="4.00"/>
    </personinfo>
    <tripinfo id="D2_1.0" depart="67.40" departLane="140483224#1_1" departPos="2.30" departPosLat="0.00" departSpeed="25.73" departDelay="0.00" arrival="251.85" arrivalLane="-145894807#0_1" arrivalPos="260.95" arrivalPosLat="0.00" arrivalSpeed="7.68" duration="184.45" routeLength="1095.56" waitingTime="82.55" waitingCount="2" stopTime="0.00" timeLoss="92.30" rerouteNo="1" devices="tripinfo_D2_1.0 routing_D2_1.0" vType="tricycle" speedFactor="0.93" vaporized=""/>
    <tripinfo id="D2_1.1" depart="92.60" departLane="140483224#1_1" departPos="7.20" departPosLat="0.00" departSpeed="29.74" departDelay="0.00" arrival="253.85" arrivalLane="-145894807#0_1" arrivalPos="260.95" arrivalPosLat="0.00" arrivalSpeed="8.91" duration="161.25" routeLength="1090.66" waitingTime="48.75" waitingCount="2" stopTime="0.00" timeLoss="81.65" rerouteNo="1" devices="tripinfo_D2_1.1 routing_D2_1.1" vType="truck" speedFactor="1.07" vaporized=""/>
    <tripinfo id="D1_1.6" depart="178.90" departLane="140483224#1_1" departPos="5.10" departPosLat="0.00" departSpeed="22.79" departDelay="0.00" arrival="265.35" arrivalLane="-793339796#2_2" arrivalPos="82.50" arrivalPosLat="0.00" arrivalSpeed="22.76" duration="86.45" routeLength="1648.38" waitingTime="0.00" waitingCount="0" stopTime="0.00" timeLoss="11.25" rerouteNo="1" devices="tripinfo_D1_1.6 routing_D1_1.6" vType="car" speedFactor="0.82" vaporized=""/>
    <tripinfo id="A1_1.2" depart="167.30" departLane="-793339796#2_1" departPos="5.10" departPosLat="0.00" departSpeed="25.50" departDelay="12.70" arrival="267.85" arrivalLane="-145894807#0_1" arrivalPos="260.95" arrivalPosLat="0.00" arrivalSpeed="7.59" duration="100.55" routeLength="1056.72" waitingTime="0.00" waitingCount="0" stopTime="0.00" timeLoss="3.05" rerouteNo="1" devices="tripinfo_A1_1.2 routing_A1_1.2" vType="car" speedFactor="0.92" vaporized=""/>
    <personinfo id="pf_4.7" depart="157.50" type="ped" speedFactor="1.06" duration="111.90" waitingTime="0.00" timeLoss="11.21" traveltime="111.90">
        <walk depart="157.50" departPos="25.00" arrival="211.90" arrivalPos="29.11" duration="54.40" routeLength="72.15" timeLoss="5.43" maxSpeed="1.47" waitingTime="0.00"/>
        <walk depart="211.90" departPos="29.11" arrival="269.40" arrivalPos="29.05" duration="57.50" routeLength="76.20" timeLoss="5.78" maxSpeed="1.47" waitingTime="0.00"/>
    </personinfo>
    <personinfo id="pf_2.11" depart="247.50" type="ped" speedFactor="0.90" duration="27.30" waitingTime="0.00" timeLoss="2.62" traveltime="27.30">
        <walk depart="247.50" departPos="15.09" arrival="274.80" arrivalPos="3.44" duration="27.30" routeLength="30.72" timeLoss="2.62" maxSpeed="1.24" waitingTime="0.00"/>
    </personinfo>
    <tripinfo id="C1_1.4" depart="147.20" departLane="440471861#0_1" departPos="5.10" departPosLat="0.00" departSpeed="26.58" departDelay="0.00" arrival="288.05" arrivalLane="-793339796#2_2" arrivalPos="82.50" arrivalPosLat="0.00" arrivalSpeed="26.58" duration="140.85" routeLength="1653.99" waitingTime="58.85" waitingCount="1" stopTime="0.00" timeLoss="77.47" rerouteNo="1" devices="tripinfo_C1_1.4 routing_C1_1.4" vType="car" speedFactor="0.96" vaporized=""/>
    <tripinfo id="C1_1.5" depart="231.00" departLane="440471861#0_1" departPos="2.30" departPosLat="0.00" departSpeed="30.32" departDelay="0.00" arrival="293.55" arrivalLane="-793339796#2_2" arrivalPos="82.50" arrivalPosLat="0.00" arrivalSpeed="30.25" duration="62.55" routeLength="1656.79" waitingTime="0.00" waitingCount="0" stopTime="0.00" timeLoss="6.90" rerouteNo="1" devices="tripinfo_C1_1.5 routing_C1_1.5" vType="motorcycle" speedFactor="1.09" vaporized=""/>
    <personinfo id="pf_4.8" depart="180.00" type="ped" speedFactor="1.09" duration="114.20" waitingTime="5.10" timeLoss="15.98" traveltime="114.20">
        <walk depart="180.00" departPos="25.00" arrival="238.25" arrivalPos="29.11" duration="58.25" routeLength="72.15" timeLoss="10.48" maxSpeed="1.51" waitingTime="5.10"/>
        <walk depart="238.25" departPos="29.11" arrival="294.20" arrivalPos="29.05" duration="55.95" routeLength="76.20" timeLoss="5.50" maxSpeed="1.51" waitingTime="0.00"/>
    </personinfo>
    <personinfo id="pf_1.2" depart="45.00" type="ped" speedFactor="1.01" duration="251.30" waitingTime="4.55" timeLoss="29.20" traveltime="251.30">
        <walk depart="45.00" departPos="25.00" arrival="296.30" arrivalPos="3.44" duration="251.30" routeLength="311.67" timeLoss="29.20" maxSpeed="1.40" waitingTime="4.55"/>
    </personinfo>
    <personinfo id="pf_1.1" depart="22.50" type="ped" speedFactor="0.94" duration="274.85" waitingTime="9.50" timeLoss="35.69" traveltime="274.85">
        <walk depart="22.50" departPos="25.00" arrival="297.35" arrivalPos="3.44" duration="274.85" routeLength="311.67" timeLoss="35.69" maxSpeed="1.30" waitingTime="9.50"/>
    </personinfo>