<?xml version="1.0" encoding="UTF-8"?>

<!-- generated on 2026-02-08 21:46:06 by Eclipse SUMO sumo Version 1.24.0
<sumoConfiguration xmlns:xsi="http://www.w3.org/2001/XMLSchema-instance" xsi:noNamespaceSchemaLocation="http://sumo.dlr.de/xsd/sumoConfiguration.xsd">

    <input>
        <net-file value="Olivarez_traci\network/map1.net.xml"/>
        <route-files value="Olivarez_traci\demand/flows_jica.rou.xml"/>
        <additional-files value="Olivarez_traci\additionals/map.poly.xml,Olivarez_traci\ additionals/detectors.add.xml"/>
    </input>

    <output>
        <tripinfo-output value="Olivarez_traci\output_A2C_Baseline\A2C_Baseline_trips.xml"/>
        <statistic-output value="Olivarez_traci\output_A2C_Baseline\A2C_Baseline_stats.xml"/>
    </output>

    <time>
        <begin value="0"/>
        <end value="10800"/>
        <step-length value="0.05"/>
    </time>

    <processing>
        <lateral-resolution value="0.1"/>
        <collision.action value="none"/>
        <collision.check-junctions value="false"/>
        <collision.mingap-factor value="0"/>
    </processing>

    <report>
        <no-warnings value="true"/>
    </report>

    <traci_server>
        <remote-port value="59013"/>
    </traci_server>

    <gui_only>
        <delay value="0"/>
    </gui_only>

</sumoConfiguration>
-->

<tripinfos xmlns:xsi="http://www.w3.org/2001/XMLSchema-instance" xsi:noNamespaceSchemaLocation="http://sumo.dlr.de/xsd/tripinfo_file.xsd">
    <personinfo id="pf_2_1.0" depart="0.00" type="ped" speedFactor="1.04" duration="23.75" waitingTime="0.00" timeLoss="2.48" traveltime="23.75">
        <walk depart="0.00" departPos="15.09" arrival="23.75" arrivalPos="3.44" duration="23.75" routeLength="30.72" timeLoss="2.48" maxSpeed="1.44" waitingTime="0.00"/>
    </personinfo>
    <tripinfo id="D3_1_1.0" depart="7.65" departLane="140483224#1_1" departPos="7.20" departPosLat="0.00" departSpeed="28.62" departDelay="0.00" arrival="68.25" arrivalLane="-440471861#0_2" arrivalPos="31.52" arrivalPosLat="0.00" arrivalSpeed="28.60" duration="60.60" routeLength="1065.87" waitingTime="5.45" waitingCount="1" stopTime="0.00" timeLoss="21.85" rerouteNo="1" devices="tripinfo_D3_1_1.0 routing_D3_1_1.0" vType="truck" speedFactor="1.03" vaporized=""/>
    <tripinfo id="A2_1_1.0" depart="4.45" departLane="-793339796#2_1" departPos="5.10" departPosLat="0.00" departSpeed="29.50" departDelay="0.00" arrival="96.05" arrivalLane="-440471861#0_1" arrivalPos="31.52" arrivalPosLat="0.00" arrivalSpeed="29.46" duration="91.60" routeLength="1081.27" waitingTime="38.15" waitingCount="2" stopTime="0.00" timeLoss="54.93" rerouteNo="1" devices="tripinfo_A2_1_1.0 routing_A2_1_1.0" vType="car" speedFactor="1.06" vaporized=""/>
    <tripinfo id="D1_1_1.0" depart="0.60" departLane="140483224#1_1" departPos="7.20" departPosLat="0.00" departSpeed="29.00" departDelay="0.00" arrival="97.20" arrivalLane="-793339796#2_1" arrivalPos="82.50" arrivalPosLat="-0.00" arrivalSpeed="25.39" duration="96.60" routeLength="1646.28" waitingTime="3.45" waitingCount="1" stopTime="0.00" timeLoss="37.58" rerouteNo="1" devices="tripinfo_D1_1_1.0 routing_D1_1_1.0" vType="truck" speedFactor="1.04" vaporized=""/>
    <tripinfo id="A2_1_1.1" depart="8.20" departLane="-793339796#2_1" departPos="5.10" departPosLat="0.00" departSpeed="24.31" departDelay="0.00" arrival="98.75" arrivalLane="-440471861#0_2" arrivalPos="31.52" arrivalPosLat="0.00" arrivalSpeed="24.28" duration="90.55" routeLength="1081.27" waitingTime="34.50" waitingCount="1" stopTime="0.00" timeLoss="46.07" rerouteNo="1" devices="tripinfo_A2_1_1.1 routing_A2_1_1.1" vType="car" speedFactor="0.88" vaporized=""/>
    <tripinfo id="A2_1_1.2" depart="64.95" departLane="-793339796#2_1" departPos="8.10" departPosLat="0.00" departSpeed="27.78" departDelay="0.00" arrival="107.10" arrivalLane="-440471861#0_1" arrivalPos="31.52" arrivalPosLat="0.00" arrivalSpeed="27.77" duration="42.15" routeLength="1078.27" waitingTime="0.00" waitingCount="0" stopTime="0.00" timeLoss="3.31" rerouteNo="1" devices="tripinfo_A2_1_1.2 routing_A2_1_1.2" vType="jeep" speedFactor="1.00" vaporized=""/>
    <tripinfo id="D1_1_1.1" depart="37.25" departLane="140483224#1_1" departPos="5.10" departPosLat="0.00" departSpeed="29.18" departDelay="0.00" arrival="109.75" arrivalLane="-793339796#2_2" arrivalPos="82.50" arrivalPosLat="0.00" arrivalSpeed="29.15" duration="72.50" routeLength="1648.38" waitingTime="0.00" waitingCount="0" stopTime="0.00" timeLoss="13.76" rerouteNo="1" devices="tripinfo_D1_1_1.1 routing_D1_1_1.1" vType="car" speedFactor="1.05" vaporized=""/>
    <tripinfo id="D1_1_1.2" depart="46.15" departLane="140483224#1_1" departPos="2.30" departPosLat="0.00" departSpeed="30.40" departDelay="0.00" arrival="110.85" arrivalLane="-793339796#2_2" arrivalPos="82.50" arrivalPosLat="0.00" arrivalSpeed="30.34" duration="64.70" routeLength="1651.18" waitingTime="0.00" waitingCount="0" stopTime="0.00" timeLoss="8.20" rerouteNo="1" devices="tripinfo_D1_1_1.2 routing_D1_1_1.2" vType="motorcycle" speedFactor="1.09" vaporized=""/>
    <tripinfo id="A3_1_1.0" depart="63.55" departLane="-793339796#2_2" departPos="8.10" departPosLat="0.00" departSpeed="27.78" departDelay="0.00" arrival="111.65" arrivalLane="-140483224#1_2" arrivalPos="64.04" arrivalPosLat="0.00" arrivalSpeed="27.75" duration="48.10" routeLength="1077.94" waitingTime="0.00" waitingCount="0" stopTime="0.00" timeLoss="7.78" rerouteNo="1" devices="tripinfo_A3_1_1.0 routing_A3_1_1.0" vType="jeep" speedFactor="1.00" vaporized=""/>
    <personinfo id="pf_4_1.0" depart="0.00" type="ped" speedFactor="0.97" duration="122.40" waitingTime="0.00" timeLoss="12.43" traveltime="122.40">
        <walk depart="0.00" departPos="25.00" arrival="59.50" arrivalPos="29.11" duration="59.50" routeLength="72.15" timeLoss="6.02" maxSpeed="1.35" waitingTime="0.00"/>
        <walk depart="59.50" departPos="29.11" arrival="122.40" arrivalPos="29.05" duration="62.90" routeLength="76.20" timeLoss="6.42" maxSpeed="1.35" waitingTime="0.00"/>
    </personinfo>
    <tripinfo id="D1_1_1.3" depart="58.55" departLane="140483224#1_1" departPos="8.10" departPosLat="0.00" departSpeed="27.78" departDelay="0.00" arrival="146.80" arrivalLane="-793339796#2_2" arrivalPos="82.50" arrivalPosLat="0.00" arrivalSpeed="24.40" duration="88.25" routeLength="1645.38" waitingTime="0.00" waitingCount="0" stopTime="0.00" timeLoss="26.65" rerouteNo="1" devices="tripinfo_D1_1_1.3 routing_D1_1_1.3" vType="jeep" speedFactor="1.00" vaporized=""/>
    <personinfo id="pf_4_1.1" depart="25.75" type="ped" speedFactor="0.96" duration="125.40" waitingTime="2.20" timeLoss="14.37" traveltime="125.40">
        <walk depart="25.75" departPos="25.00" arrival="85.60" arrivalPos="29.11" duration="59.85" routeLength="72.15" timeLoss="5.85" maxSpeed="1.34" waitingTime="0.00"/>
        <walk depart="85.60" departPos="29.11" arrival="151.15" arrivalPos="29.05" duration="65.55" routeLength="76.20" timeLoss="8.52" maxSpeed="1.34" waitingTime="2.20"/>
    </personinfo>
    <tripinfo id="C1_1_1.3" depart="71.00" departLane="440471861#0_1" departPos="5.10" departPosLat="0.00" departSpeed="27.23" departDelay="0.00" arrival="170.00" arrivalLane="-793339796#2_2" arrivalPos="82.50" arrivalPosLat="0.00" arrivalSpeed="27.22" duration="99.00" routeLength="1653.99" waitingTime="11.10" waitingCount="1" stopTime="0.00" timeLoss="37.13" rerouteNo="1" devices="tripinfo_C1_1_1.3 routing_C1_1_1.3" vType="car" speedFactor="0.98" vaporized=""/>
    <tripinfo id="C3_1_1.0" depart="11.40" departLane="440471861#0_1" departPos="5.10" departPosLat="0.00" departSpeed="33.54" departDelay="0.00" arrival="170.55" arrivalLane="-140483224#1_1" arrivalPos="64.04" arrivalPosLat="0.00" arrivalSpeed="33.50" duration="159.15" routeLength="1052.78" waitingTime="115.70" waitingCount="1" stopTime="0.00" timeLoss="126.64" rerouteNo="1" devices="tripinfo_C3_1_1.0 routing_C3_1_1.0" vType="car" speedFactor="1.21" vaporized=""/>
    <tripinfo id="B2_1_1.0" depart="64.60" departLane="-361257727#0_1" departPos="5.10" departPosLat="0.00" departSpeed="9.55" departDelay="0.00" arrival="173.00" arrivalLane="-440471861#0_1" arrivalPos="31.52" arrivalPosLat="-0.00" arrivalSpeed="31.79" duration="108.40" routeLength="1397.68" waitingTime="0.00" waitingCount="0" stopTime="0.00" timeLoss="6.25" rerouteNo="1" devices="tripinfo_B2_1_1.0 routing_B2_1_1.0" vType="car" speedFactor="1.15" vaporized=""/>
    <tripinfo id="C1_1_1.1" depart="31.85" departLane="440471861#0_1" departPos="2.30" departPosLat="0.00" departSpeed="27.62" departDelay="0.00" arrival="174.65" arrivalLane="-793339796#2_2" arrivalPos="82.50" arrivalPosLat="0.00" arrivalSpeed="27.59" duration="142.80" routeLength="1656.79" waitingTime="57.45" waitingCount="1" stopTime="0.00" timeLoss="81.65" rerouteNo="1" devices="tripinfo_C1_1_1.1 routing_C1_1_1.1" vType="tricycle" speedFactor="0.99" vaporized=""/>
    <tripinfo id="C1_1_1.2" depart="41.05" departLane="440471861#0_1" departPos="5.10" departPosLat="0.00" departSpeed="32.64" departDelay="0.00" arrival="176.30" arrivalLane="-793339796#2_1" arrivalPos="82.50" arrivalPosLat="-0.00" arrivalSpeed="32.63" duration="135.25" routeLength="1653.99" waitingTime="49.20" waitingCount="1" stopTime="0.00" timeLoss="83.62" rerouteNo="1" devices="tripinfo_C1_1_1.2 routing_C1_1_1.2" vType="car" speedFactor="1.17" vaporized=""/>
    <tripinfo id="C3_1_1.2" depart="78.25" departLane="440471861#0_1" departPos="2.30" departPosLat="0.00" departSpeed="22.58" departDelay="0.00" arrival="180.10" arrivalLane="-140483224#1_1" arrivalPos="64.04" arrivalPosLat="-0.00" arrivalSpeed="22.52" duration="101.85" routeLength="1055.58" waitingTime="25.30" waitingCount="2" stopTime="0.00" timeLoss="53.47" rerouteNo="1" devices="tripinfo_C3_1_1.2 routing_C3_1_1.2" vType="motorcycle" speedFactor="0.81" vaporized=""/>
    <tripinfo id="C3_1_1.1" depart="43.55" departLane="440471861#0_1" departPos="8.10" departPosLat="0.00" departSpeed="27.78" departDelay="0.00" arrival="181.20" arrivalLane="-140483224#1_2" arrivalPos="64.04" arrivalPosLat="0.00" arrivalSpeed="27.77" duration="137.65" routeLength="1049.78" waitingTime="62.35" waitingCount="3" stopTime="0.00" timeLoss="98.48" rerouteNo="1" devices="tripinfo_C3_1_1.1 routing_C3_1_1.1" vType="jeep" speedFactor="1.00" vaporized=""/>
    <tripinfo id="C1_1_1.0" depart="17.65" departLane="440471861#0_1" departPos="5.10" departPosLat="0.00" departSpeed="27.59" departDelay="0.00" arrival="181.50" arrivalLane="-793339796#2_2" arrivalPos="82.50" arrivalPosLat="0.00" arrivalSpeed="27.56" duration="163.85" routeLength="1653.99" waitingTime="78.00" waitingCount="1" stopTime="0.00" timeLoss="102.83" rerouteNo="1" devices="tripinfo_C1_1_1.0 routing_C1_1_1.0" vType="car" speedFactor="0.99" vaporized=""/>
    <tripinfo id="C2_1_1.0" depart="20.15" departLane="440471861#0_2" departPos="8.10" departPosLat="0.00" departSpeed="27.78" departDelay="0.00" arrival="181.65" arrivalLane="-145894807#0_1" arrivalPos="260.95" arrivalPosLat="0.00" arrivalSpeed="8.31" duration="161.50" routeLength="1079.06" waitingTime="66.10" waitingCount="1" stopTime="0.00" timeLoss="76.38" rerouteNo="1" devices="tripinfo_C2_1_1.0 routing_C2_1_1.0" vType="jeep" speedFactor="1.00" vaporized=""/>
    <personinfo id="pf_4_1.3" depart="77.15" type="ped" speedFactor="1.10" duration="108.25" waitingTime="1.10" timeLoss="11.57" traveltime="108.25">
        <walk depart="77.15" departPos="25.00" arrival="129.25" arrivalPos="29.11" duration="52.10" routeLength="72.15" timeLoss="5.08" maxSpeed="1.53" waitingTime="0.00"/>
        <walk depart="129.25" departPos="29.11" arrival="185.40" arrivalPos="29.05" duration="56.15" routeLength="76.20" timeLoss="6.49" maxSpeed="1.53" waitingTime="1.10"/>
    </personinfo>
    <tripinfo id="B1_1_1.0" depart="37.80" departLane="-361257727#0_1" departPos="5.10" departPosLat="0.00" departSpeed="8.47" departDelay="0.00" arrival="186.35" arrivalLane="-793339796#2_2" arrivalPos="82.50" arrivalPosLat="0.00" arrivalSpeed="28.22" duration="148.55" routeLength="1915.44" waitingTime="0.00" waitingCount="0" stopTime="0.00" timeLoss="16.11" rerouteNo="1" devices="tripinfo_B1_1_1.0 routing_B1_1_1.0" vType="car" speedFactor="1.02" vaporized=""/>
    <personinfo id="pf_4_1.2" depart="51.45" type="ped" speedFactor="0.98" duration="137.95" waitingTime="17.55" timeLoss="29.45" traveltime="137.95">
        <walk depart="51.45" departPos="25.00" arrival="118.95" arrivalPos="29.11" duration="67.50" routeLength="72.15" timeLoss="14.73" maxSpeed="1.37" waitingTime="8.80"/>
        <walk depart="118.95" departPos="29.11" arrival="189.40" arrivalPos="29.05" duration="70.45" routeLength="76.20" timeLoss="14.72" maxSpeed="1.37" waitingTime="8.75"/>
    </personinfo>
    <tripinfo id="A1_1_1.0" depart="106.35" departLane="-793339796#2_1" departPos="8.10" departPosLat="0.00" departSpeed="27.78" departDelay="27.40" arrival="200.10" arrivalLane="-145894807#0_1" arrivalPos="260.95" arrivalPosLat="0.00" arrivalSpeed="8.31" duration="93.75" routeLength="1053.72" waitingTime="0.00" waitingCount="0" stopTime="0.00" timeLoss="4.34" rerouteNo="1" devices="tripinfo_A1_1_1.0 routing_A1_1_1.0" vType="jeep" speedFactor="1.00" vaporized=""/>
    <tripinfo id="B2_1_1.1" depart="75.15" departLane="-361257727#0_1" departPos="5.10" departPosLat="0.00" departSpeed="8.08" departDelay="0.00" arrival="200.85" arrivalLane="-440471861#0_1" arrivalPos="31.52" arrivalPosLat="-0.00" arrivalSpeed="26.95" duration="125.70" routeLength="1397.68" waitingTime="0.00" waitingCount="0" stopTime="0.00" timeLoss="5.01" rerouteNo="1" devices="tripinfo_B2_1_1.1 routing_B2_1_1.1" vType="car" speedFactor="0.97" vaporized=""/>
    <tripinfo id="C1_1_1.4" depart="147.20" departLane="440471861#0_1" departPos="5.10" departPosLat="0.00" departSpeed="29.75" departDelay="0.00" arrival="216.20" arrivalLane="-793339796#2_2" arrivalPos="82.50" arrivalPosLat="0.00" arrivalSpeed="29.71" duration="69.00" routeLength="1653.99" waitingTime="0.00" waitingCount="0" stopTime="0.00" timeLoss="12.33" rerouteNo="1" devices="tripinfo_C1_1_1.4 routing_C1_1_1.4" vType="car" speedFactor="1.07" vaporized=""/>
    <personinfo id="pf_4_1.4" depart="102.90" type="ped" speedFactor="1.04" duration="114.30" waitingTime="0.00" timeLoss="11.25" traveltime="114.30">
        <walk depart="102.90" departPos="25.00" arrival="158.55" arrivalPos="29.11" duration="55.65" routeLength="72.15" timeLoss="5.53" maxSpeed="1.44" waitingTime="0.00"/>
        <walk depart="158.55" departPos="29.11" arrival="217.20" arrivalPos="29.05" duration="58.65" routeLength="76.20" timeLoss="5.72" maxSpeed="1.44" waitingTime="0.00"/>
    </personinfo>
    <tripinfo id="A1_1_1.1" depart="134.15" departLane="-793339796#2_1" departPos="12.10" departPosLat="0.00" departSpeed="27.78" departDelay="8.50" arrival="234.30" arrivalLane="-145894807#0_1" arrivalPos="260.95" arrivalPosLat="0.00" arrivalSpeed="8.33" duration="100.15" routeLength="1049.72" waitingTime="1.65" waitingCount="1" stopTime="0.00" timeLoss="10.92" rerouteNo="1" devices="tripinfo_A1_1_1.1 routing_A1_1_1.1" vType="bus" speedFactor="1.00" vaporized=""/>
    <personinfo id="pf_2_1.2" depart="49.70" type="ped" speedFactor="1.02" duration="186.25" waitingTime="162.05" timeLoss="164.63" traveltime="186.25">
        <walk depart="49.70" departPos="15.09" arrival="235.95" arrivalPos="3.44" duration="186.25" routeLength="30.72" timeLoss="164.63" maxSpeed="1.42" waitingTime="162.05"/>
    </personinfo>
    <personinfo id="pf_2_1.1" depart="24.85" type="ped" speedFactor="1.02" duration="211.15" waitingTime="187.10" timeLoss="189.51" traveltime="211.15">
        <walk depart="24.85" departPos="15.09" arrival="236.00" arrivalPos="3.44" duration="211.15" routeLength="30.72" timeLoss="189.51" maxSpeed="1.42" waitingTime="187.10"/>
    </personinfo>
    <personinfo id="pf_2_1.8" depart="198.65" type="ped" speedFactor="1.03" duration="38.15" waitingTime="13.95" timeLoss="16.73" traveltime="38.15">
        <walk depart="198.65" departPos="15.09" arrival="236.80" arrivalPos="3.44" duration="38.15" routeLength="30.72" timeLoss="16.73" maxSpeed="1.43" waitingTime="13.95"/>
    </personinfo>
    <personinfo id="pf_2_1.3" depart="74.50" type="ped" speedFactor="0.97" duration="162.30" waitingTime="136.85" timeLoss="139.56" traveltime="162.30">
        <walk depart="74.50" departPos="15.09" arrival="236.80" arrivalPos="3.44" duration="162.30" routeLength="30.72" timeLoss="139.56" maxSpeed="1.35" waitingTime="136.85"/>
    </personinfo>
    <personinfo id="pf_2_1.7" depart="173.80" type="ped" speedFactor="0.98" duration="63.45" waitingTime="38.55" timeLoss="40.99" traveltime="63.45">
        <walk depart="173.80" departPos="15.09" arrival="237.25" arrivalPos="3.44" duration="63.45" routeLength="30.72" timeLoss="40.99" maxSpeed="1.37" waitingTime="38.55"/>
    </personinfo>
    <personinfo id="pf_2_1.6" depart="149.00" type="ped" speedFactor="0.96" duration="88.65" waitingTime="63.00" timeLoss="65.49" traveltime="88.65">
        <walk depart="149.00" departPos="15.09" arrival="237.65" arrivalPos="3.44" duration="88.65" routeLength="30.72" timeLoss="65.49" maxSpeed="1.33" waitingTime="63.00"/>
    </personinfo>
    <personinfo id="pf_2_1.4" depart="99.35" type="ped" speedFactor="0.94" duration="138.60" waitingTime="112.40" timeLoss="115.07" traveltime="138.60">
        <walk depart="99.35" departPos="15.09" arrival="237.95" arrivalPos="3.44" duration="138.60" routeLength="30.72" timeLoss="115.07" maxSpeed="1.31" waitingTime="112.40"/>
    </personinfo>
    <personinfo id="pf_2_1.5" depart="124.15" type="ped" speedFactor="1.06" duration="114.20" waitingTime="89.95" timeLoss="93.25" traveltime="114.20">
        <walk depart="124.15" departPos="15.09" arrival="238.35" arrivalPos="3.44" duration="114.20" routeLength="30.72" timeLoss="93.25" maxSpeed="1.47" waitingTime="89.95"/>
    </personinfo>
    <personinfo id="pf_2_1.9" depart="223.50" type="ped" speedFactor="0.98" duration="25.00" waitingTime="0.00" timeLoss="2.47" traveltime="25.00">
        <walk depart="223.50" departPos="15.09" arrival="248.50" arrivalPos="3.44" duration="25.00" routeLength="30.72" timeLoss="2.47" maxSpeed="1.36" waitingTime="0.00"/>
    </personinfo>
    <personinfo id="pf_4_1.5" depart="128.60" type="ped" speedFactor="1.00" duration="121.05" waitingTime="2.75" timeLoss="14.54" traveltime="121.05">
        <walk depart="128.60" departPos="25.00" arrival="188.80" arrivalPos="29.11" duration="60.20" routeLength="72.15" timeLoss="8.40" maxSpeed="1.39" waitingTime="2.75"/>
        <walk depart="188.80" departPos="29.11" arrival="249.65" arrivalPos="29.05" duration="60.85" routeLength="76.20" timeLoss="6.14" maxSpeed="1.39" waitingTime="0.00"/>
    </personinfo>
    <tripinfo id="C3_1_1.3" depart="161.95" departLane="440471861#0_1" departPos="7.20" departPosLat="0.00" departSpeed="27.26" departDelay="0.00" arrival="252.00" arrivalLane="-140483224#1_1" arrivalPos="64.04" arrivalPosLat="0.00" arrivalSpeed="27.23" duration="90.05" routeLength="1050.68" waitingTime="31.65" waitingCount="1" stopTime="0.00" timeLoss="50.12" rerouteNo="1" devices="tripinfo_C3_1_1.3 routing_C3_1_1.3" vType="truck" speedFactor="0.98" vaporized=""/>
    <tripinfo id="C2_1_1.1" depart="161.10" departLane="440471861#0_2" departPos="5.10" departPosLat="0.00" departSpeed="24.37" departDelay="0.00" arrival="259.95" arrivalLane="-145894807#0_1" arrivalPos="260.95" arrivalPosLat="0.00" arrivalSpeed="7.28" duration="98.85" routeLength="1082.06" waitingTime="0.00" waitingCount="0" stopTime="0.00" timeLoss="1.64" rerouteNo="1" devices="tripinfo_C2_1_1.1 routing_C2_1_1.1" vType="car" speedFactor="0.88" vaporized=""/>
    <personinfo id="pf_4_1.6" depart="154.30" type="ped" speedFactor="1.10" duration="107.55" waitingTime="0.00" timeLoss="10.61" traveltime="107.55">
        <walk depart="154.30" departPos="25.00" arrival="206.60" arrivalPos="29.11" duration="52.30" routeLength="72.15" timeLoss="5.15" maxSpeed="1.53" waitingTime="0.00"/>
        <walk depart="206.60" departPos="29.11" arrival="261.85" arrivalPos="29.05" duration="55.25" routeLength="76.20" timeLoss="5.46" maxSpeed="1.53" waitingTime="0.00"/>
    </personinfo>
    <tripinfo id="A1_1_1.2" depart="163.75" departLane="-793339796#2_1" departPos="8.10" departPosLat="0.00" departSpeed="27.78" departDelay="9.15" arrival="261.90" arrivalLane="-145894807#0_1" arrivalPos="260.95" arrivalPosLat="0.00" arrivalSpeed="8.31" duration="98.15" routeLength="1053.72" waitingTime="0.00" waitingCount="0" stopTime="0.00" timeLoss="8.70" rerouteNo="1" devices="tripinfo_A1_1_1.2 routing_A1_1_1.2" vType="jeep" speedFactor="1.00" vaporized=""/>
    <tripinfo id="D3_1_1.1" depart="100.85" departLane="140483224#1_2" departPos="5.10" departPosLat="0.00" departSpeed="29.17" departDelay="0.00" arrival="273.20" arrivalLane="-440471861#0_2" arrivalPos="31.52" arrivalPosLat="0.00" arrivalSpeed="29.14" duration="172.35" routeLength="1067.97" waitingTime="125.05" waitingCount="1" stopTime="0.00" timeLoss="134.25" rerouteNo="1" devices="tripinfo_D3_1_1.1 routing_D3_1_1.1" vType="car" speedFactor="1.05" vaporized=""/>
    <tripinfo id="D2_1_1.0" depart="67.40" departLane="140483224#1_1" departPos="7.20" departPosLat="0.00" departSpeed="27.92" departDelay="0.00" arrival="276.60" arrivalLane="-145894807#0_1" arrivalPos="260.95" arrivalPosLat="0.00" arrivalSpeed="8.34" duration="209.20" routeLength="1090.66" waitingTime="114.50" waitingCount="1" stopTime="0.00" timeLoss="124.38" rerouteNo="1" devices="tripinfo_D2_1_1.0 routing_D2_1_1.0" vType="truck" speedFactor="1.00" vaporized=""/>
    <tripinfo id="D2_1_1.1" depart="92.60" departLane="140483224#1_1" departPos="2.30" departPosLat="0.00" departSpeed="29.07" departDelay="0.00" arrival="278.45" arrivalLane="-145894807#0_1" arrivalPos="260.95" arrivalPosLat="0.00" arrivalSpeed="8.63" duration="185.85" routeLength="1095.56" waitingTime="92.20" waitingCount="1" stopTime="0.00" timeLoss="104.23" rerouteNo="1" devices="tripinfo_D2_1_1.1 routing_D2_1_1.1" vType="motorcycle" speedFactor="1.05" vaporized=""/>
    <tripinfo id="D3_1_1.2" depart="106.35" departLane="140483224#1_2" departPos="8.10" departPosLat="0.00" departSpeed="27.78" departDelay="0.00" arrival="282.60" arrivalLane="-440471861#0_2" arrivalPos="31.52" arrivalPosLat="0.00" arrivalSpeed="27.76" duration="176.25" routeLength="1064.97" waitingTime="118.80" waitingCount="1" stopTime="0.00" timeLoss="136.38" rerouteNo="1" devices="tripinfo_D3_1_1.2 routing_D3_1_1.2" vType="jeep" speedFactor="1.00" vaporized=""/>
    <tripinfo id="D3_1_1.3" depart="208.30" departLane="140483224#1_1" departPos="7.20" departPosLat="0.00" departSpeed="24.69" departDelay="0.00" arrival="284.70" arrivalLane="-440471861#0_2" arrivalPos="31.52" arrivalPosLat="0.00" arrivalSpeed="24.68" duration="76.40" routeLength="1065.87" waitingTime="15.55" waitingCount="1" stopTime="0.00" timeLoss="31.47" rerouteNo="1" devices="tripinfo_D3_1_1.3 routing_D3_1_1.3" vType="truck" speedFactor="0.89" vaporized=""/>
    <tripinfo id="D3_1_1.4" depart="241.40" departLane="140483224#1_1" departPos="7.20" departPosLat="0.00" departSpeed="28.27" departDelay="0.00" arrival="288.15" arrivalLane="-440471861#0_2" arrivalPos="31.52" arrivalPosLat="0.00" arrivalSpeed="28.25" duration="46.75" routeLength="1065.87" waitingTime="0.00" waitingCount="0" stopTime="0.00" timeLoss="7.51" rerouteNo="1" devices="tripinfo_D3_1_1.4 routing_D3_1_1.4" vType="truck" speedFactor="1.02" vaporized=""/>
    <tripinfo id="D1_1_1.6" depart="178.90" departLane="140483224#1_1" departPos="2.30" departPosLat="0.00" departSpeed="27.62" departDelay="0.00" arrival="296.55" arrivalLane="-793339796#2_2" arrivalPos="82.50" arrivalPosLat="0.00" arrivalSpeed="27.54" duration="117.65" routeLength="1651.18" waitingTime="31.50" waitingCount="2" stopTime="0.00" timeLoss="55.42" rerouteNo="1" devices="tripinfo_D1_1_1.6 routing_D1_1_1.6" vType="motorcycle" speedFactor="0.99" vaporized=""/>
    <tripinfo id="A3_1_1.2" depart="107.30" departLane="-793339796#2_1" departPos="2.30" departPosLat="0.00" departSpeed="26.66" departDelay="0.00" arrival="300.05" arrivalLane="-140483224#1_2" arrivalPos="64.04" arrivalPosLat="0.00" arrivalSpeed="28.66" duration="192.75" routeLength="1083.74" waitingTime="149.40" waitingCount="1" stopTime="0.00" timeLoss="153.58" rerouteNo="1" devices="tripinfo_A3_1_1.2 routing_A3_1_1.2" vType="motorcycle" speedFactor="1.03" vaporized=""/>
    <tripinfo id="A2_1_1.4" depart="209.50" departLane="-793339796#2_1" departPos="2.30" departPosLat="0.00" departSpeed="20.90" departDelay="0.00" arrival="305.70" arrivalLane="-440471861#0_1" arrivalPos="31.52" arrivalPosLat="-0.00" arrivalSpeed="20.76" duration="96.20" routeLength="1084.07" waitingTime="37.90" waitingCount="2" stopTime="0.00" timeLoss="44.31" rerouteNo="1" devices="tripinfo_A2_1_1.4 routing_A2_1_1.4" vType="motorcycle" speedFactor="0.75" vaporized=""/>
    <tripinfo id="A3_1_1.1" depart="108.40" departLane="-793339796#2_2" departPos="5.10" departPosLat="0.00" departSpeed="15.47" departDelay="11.70" arrival="306.35" arrivalLane="-140483224#1_2" arrivalPos="64.04" arrivalPosLat="0.00" arrivalSpeed="24.92" duration="197.95" routeLength="1080.94" waitingTime="139.75" waitingCount="1" stopTime="0.00" timeLoss="152.91" rerouteNo="1" devices="tripinfo_A3_1_1.1 routing_A3_1_1.1" vType="car" speedFactor="0.90" vaporized=""/>
    <tripinfo id="D1_1_1.4" depart="118.00" departLane="140483224#1_1" departPos="2.30" departPosLat="0.00" departSpeed="27.44" departDelay="0.00" arrival="307.35" arrivalLane="-793339796#2_2" arrivalPos="82.50" arrivalPosLat="0.00" arrivalSpeed="27.44" duration="189.35" routeLength="1651.18" waitingTime="95.70" waitingCount="2" stopTime="0.00" timeLoss="126.79" rerouteNo="1" devices="tripinfo_D1_1_1.4 routing_D1_1_1.4" vType="tricycle" speedFactor="0.99" vaporized=""/>
    <tripinfo id="A3_1_1.3" depart="111.05" departLane="-793339796#2_1" departPos="2.30" departPosLat="0.00" departSpeed="26.57" departDelay="0.00" arrival="307.50" arrivalLane="-140483224#1_2" arrivalPos="64.04" arrivalPosLat="0.00" arrivalSpeed="26.55" duration="196.45" routeLength="1083.74" waitingTime="142.15" waitingCount="2" stopTime="0.00" timeLoss="154.05" rerouteNo="1" devices="tripinfo_A3_1_1.3 routing_A3_1_1.3" vType="motorcycle" speedFactor="0.96" vaporized=""/>
    <tripinfo id="A2_1_1.3" depart="163.75" departLane="-793339796#2_2" departPos="5.10" departPosLat="0.00" departSpeed="28.79" departDelay="7.30" arrival="308.05" arrivalLane="-440471861#0_1" arrivalPos="31.52" arrivalPosLat="0.00" arrivalSpeed="26.04" duration="144.30" routeLength="1081.27" waitingTime="82.70" waitingCount="2" stopTime="0.00" timeLoss="106.71" rerouteNo="1" devices="tripinfo_A2_1_1.3 routing_A2_1_1.3" vType="car" speedFactor="1.04" vaporized=""/>
    <tripinfo id="A2_1_1.5" depart="252.35" departLane="-793339796#2_1" departPos="2.30" departPosLat="0.00" departSpeed="31.50" departDelay="0.00" arrival="309.25" arrivalLane="-440471861#0_1" arrivalPos="31.52" arrivalPosLat="0.00" arrivalSpeed="27.26" duration="56.90" routeLength="1084.07" waitingTime="3.60" waitingCount="1" stopTime="0.00" timeLoss="22.47" rerouteNo="1" devices="tripinfo_A2_1_1.5 routing_A2_1_1.5" vType="tricycle" speedFactor="1.13" vaporized=""/>
    <tripinfo id="A3_1_1.4" depart="134.15" departLane="-793339796#2_2" departPos="5.10" departPosLat="0.00" departSpeed="28.89" departDelay="20.35" arrival="309.90" arrivalLane="-140483224#1_2" arrivalPos="64.04" arrivalPosLat="0.00" arrivalSpeed="28.86" duration="175.75" routeLength="1080.94" waitingTime="119.45" waitingCount="2" stopTime="0.00" timeLoss="136.88" rerouteNo="1" devices="tripinfo_A3_1_1.4 routing_A3_1_1.4" vType="car" speedFactor="1.04" vaporized=""/>
    <tripinfo id="A3_1_1.5" depart="148.50" departLane="-793339796#2_1" departPos="2.30" departPosLat="0.00" departSpeed="25.98" departDelay="0.00" arrival="311.20" arrivalLane="-140483224#1_2" arrivalPos="64.04" arrivalPosLat="0.00" arrivalSpeed="25.86" duration="162.70" routeLength="1083.74" waitingTime="105.05" waitingCount="1" stopTime="0.00" timeLoss="119.39" rerouteNo="1" devices="tripinfo_A3_1_1.5 routing_A3_1_1.5" vType="motorcycle" speedFactor="0.94" vaporized=""/>
    <tripinfo id="A2_1_1.6" depart="265.70" departLane="-793339796#2_1" departPos="8.10" departPosLat="0.00" departSpeed="27.78" departDelay="7.65" arrival="312.10" arrivalLane="-440471861#0_1" arrivalPos="31.52" arrivalPosLat="0.00" arrivalSpeed="27.75" duration="46.40" routeLength="1078.27" waitingTime="0.00" waitingCount="0" stopTime="0.00" timeLoss="7.54" rerouteNo="1" devices="tripinfo_A2_1_1.6 routing_A2_1_1.6" vType="jeep" speedFactor="1.00" vaporized=""/>
    <tripinfo id="D1_1_1.7" depart="226.35" departLane="140483224#1_1" departPos="5.10" departPosLat="0.00" departSpeed="23.84" departDelay="0.00" arrival="313.45" arrivalLane="-793339796#2_2" arrivalPos="82.50" arrivalPosLat="0.00" arrivalSpeed="23.83" duration="87.10" routeLength="1648.38" waitingTime="0.00" waitingCount="0" stopTime="0.00" timeLoss="15.19" rerouteNo="1" devices="tripinfo_D1_1_1.7 routing_D1_1_1.7" vType="car" speedFactor="0.86" vaporized=""/>
    <tripinfo id="A3_1_1.6" depart="238.90" departLane="-793339796#2_2" departPos="2.30" departPosLat="0.00" departSpeed="23.80" departDelay="11.75" arrival="314.05" arrivalLane="-140483224#1_2" arrivalPos="64.04" arrivalPosLat="0.00" arrivalSpeed="23.77" duration="75.15" routeLength="1083.74" waitingTime="10.60" waitingCount="2" stopTime="0.00" timeLoss="27.81" rerouteNo="1" devices="tripinfo_A3_1_1.6 routing_A3_1_1.6" vType="tricycle" speedFactor="0.86" vaporized=""/>
    <personinfo id="pf_4_1.8" depart="205.75" type="ped" speedFactor="1.09" duration="110.70" waitingTime="1.55" timeLoss="12.52" traveltime="110.70">