<?xml version="1.0" encoding="UTF-8"?>

<!-- generated on 2025-12-03 22:43:19 by Eclipse SUMO sumo Version 1.24.0
<sumoConfiguration xmlns:xsi="http://www.w3.org/2001/XMLSchema-instance" xsi:noNamespaceSchemaLocation="http://sumo.dlr.de/xsd/sumoConfiguration.xsd">

    <input>
        <net-file value="Olivarez_traci\network/baseline.net.xml"/>
        <route-files value="Olivarez_traci\demand\flows_normal_traffic.rou.xml"/>
        <additional-files value="Olivarez_traci\additionals/map.poly.xml,Olivarez_traci\ additionals/detectors.add.xml"/>
    </input>

    <output>
        <tripinfo-output value="Olivarez_traci\output_A2C_Baseline\SP_A2C_Baseline_Normal_trips.xml"/>
        <statistic-output value="Olivarez_traci\output_A2C_Baseline\SP_A2C_Baseline_Normal_stats.xml"/>
    </output>

    <time>
        <begin value="0"/>
        <end value="10800"/>
        <step-length value="0.1"/>
    </time>

    <processing>
        <lateral-resolution value="0.1"/>
        <collision.action value="none"/>
        <collision.check-junctions value="false"/>
        <collision.mingap-factor value="0"/>
    </processing>

    <report>
        <no-warnings value="true"/>
    </report>

    <traci_server>
        <remote-port value="50424"/>
    </traci_server>

    <gui_only>
        <delay value="0"/>
    </gui_only>

</sumoConfiguration>
-->

<tripinfos xmlns:xsi="http://www.w3.org/2001/XMLSchema-instance" xsi:noNamespaceSchemaLocation="http://sumo.dlr.de/xsd/tripinfo_file.xsd">
    <personinfo id="pf_2.0" depart="0.00" type="ped" speedFactor="1.03" duration="23.90" waitingTime="0.00" timeLoss="2.52" traveltime="23.90">
        <walk depart="0.00" departPos="15.09" arrival="23.90" arrivalPos="3.44" duration="23.90" routeLength="30.72" timeLoss="2.52" maxSpeed="1.44" waitingTime="0.00"/>
    </personinfo>
    <tripinfo id="A2_1.0" depart="8.90" departLane="-793339796#2_1" departPos="2.30" departPosLat="0.00" departSpeed="27.90" departDelay="0.00" arrival="57.70" arrivalLane="-440471861#0_1" arrivalPos="31.52" arrivalPosLat="0.00" arrivalSpeed="27.85" duration="48.80" routeLength="1084.07" waitingTime="5.30" waitingCount="1" stopTime="0.00" timeLoss="9.85" rerouteNo="1" devices="tripinfo_A2_1.0 routing_A2_1.0" vType="motorcycle" speedFactor="1.00" vaporized=""/>
    <tripinfo id="A2_1.1" depart="16.40" departLane="-793339796#2_1" departPos="5.10" departPosLat="0.00" departSpeed="26.58" departDelay="0.00" arrival="58.00" arrivalLane="-440471861#0_2" arrivalPos="31.52" arrivalPosLat="0.00" arrivalSpeed="26.52" duration="41.60" routeLength="1081.27" waitingTime="0.00" waitingCount="0" stopTime="0.00" timeLoss="0.83" rerouteNo="1" devices="tripinfo_A2_1.1 routing_A2_1.1" vType="car" speedFactor="0.96" vaporized=""/>
    <personinfo id="pf_2.1" depart="45.00" type="ped" speedFactor="1.00" duration="24.50" waitingTime="0.00" timeLoss="2.34" traveltime="24.50">
        <walk depart="45.00" departPos="15.09" arrival="69.50" arrivalPos="3.44" duration="24.50" routeLength="30.72" timeLoss="2.34" maxSpeed="1.39" waitingTime="0.00"/>
    </personinfo>
    <tripinfo id="D1_1.0" depart="1.20" departLane="140483224#1_1" departPos="5.10" departPosLat="0.00" departSpeed="23.74" departDelay="0.00" arrival="84.80" arrivalLane="-793339796#2_2" arrivalPos="82.50" arrivalPosLat="0.00" arrivalSpeed="23.71" duration="83.60" routeLength="1648.38" waitingTime="0.00" waitingCount="0" stopTime="0.00" timeLoss="11.37" rerouteNo="1" devices="tripinfo_D1_1.0 routing_D1_1.0" vType="car" speedFactor="0.85" vaporized=""/>
    <tripinfo id="C3_1.0" depart="22.80" departLane="440471861#0_1" departPos="8.10" departPosLat="0.00" departSpeed="27.78" departDelay="0.00" arrival="110.20" arrivalLane="-140483224#1_2" arrivalPos="64.04" arrivalPosLat="0.00" arrivalSpeed="27.73" duration="87.40" routeLength="1049.78" waitingTime="30.80" waitingCount="1" stopTime="0.00" timeLoss="48.23" rerouteNo="1" devices="tripinfo_C3_1.0 routing_C3_1.0" vType="jeep" speedFactor="1.00" vaporized=""/>
    <personinfo id="pf_2.2" depart="90.00" type="ped" speedFactor="1.02" duration="28.50" waitingTime="4.40" timeLoss="6.75" traveltime="28.50">
        <walk depart="90.00" departPos="15.09" arrival="118.50" arrivalPos="3.44" duration="28.50" routeLength="30.72" timeLoss="6.75" maxSpeed="1.41" waitingTime="4.40"/>
    </personinfo>
    <tripinfo id="D3_1.0" depart="15.30" departLane="140483224#1_2" departPos="5.10" departPosLat="0.00" departSpeed="27.91" departDelay="0.00" arrival="122.00" arrivalLane="-440471861#0_2" arrivalPos="31.52" arrivalPosLat="0.00" arrivalSpeed="27.84" duration="106.70" routeLength="1067.97" waitingTime="58.40" waitingCount="1" stopTime="0.00" timeLoss="66.89" rerouteNo="1" devices="tripinfo_D3_1.0 routing_D3_1.0" vType="car" speedFactor="1.00" vaporized=""/>
    <personinfo id="pf_4.0" depart="0.00" type="ped" speedFactor="0.95" duration="124.60" waitingTime="0.00" timeLoss="12.30" traveltime="124.60">
        <walk depart="0.00" departPos="25.00" arrival="60.60" arrivalPos="29.11" duration="60.60" routeLength="72.15" timeLoss="5.98" maxSpeed="1.32" waitingTime="0.00"/>
        <walk depart="60.60" departPos="29.11" arrival="124.60" arrivalPos="29.05" duration="64.00" routeLength="76.20" timeLoss="6.32" maxSpeed="1.32" waitingTime="0.00"/>
    </personinfo>
    <tripinfo id="C1_1.0" depart="35.30" departLane="440471861#0_1" departPos="5.10" departPosLat="0.00" departSpeed="28.06" departDelay="0.00" arrival="132.20" arrivalLane="-793339796#2_2" arrivalPos="82.50" arrivalPosLat="0.00" arrivalSpeed="28.01" duration="96.90" routeLength="1653.99" waitingTime="18.20" waitingCount="1" stopTime="0.00" timeLoss="36.89" rerouteNo="1" devices="tripinfo_C1_1.0 routing_C1_1.0" vType="car" speedFactor="1.01" vaporized=""/>
    <tripinfo id="C1_1.1" depart="63.70" departLane="440471861#0_1" departPos="12.10" departPosLat="0.00" departSpeed="27.78" departDelay="0.00" arrival="143.10" arrivalLane="-793339796#2_2" arrivalPos="82.50" arrivalPosLat="0.00" arrivalSpeed="24.58" duration="79.40" routeLength="1646.99" waitingTime="0.00" waitingCount="0" stopTime="0.00" timeLoss="18.98" rerouteNo="1" devices="tripinfo_C1_1.1 routing_C1_1.1" vType="bus" speedFactor="1.00" vaporized=""/>
    <tripinfo id="C2_1.0" depart="40.30" departLane="440471861#0_2" departPos="2.30" departPosLat="0.00" departSpeed="27.09" departDelay="0.00" arrival="149.80" arrivalLane="-145894807#0_1" arrivalPos="260.95" arrivalPosLat="0.00" arrivalSpeed="8.10" duration="109.50" routeLength="1084.86" waitingTime="11.10" waitingCount="1" stopTime="0.00" timeLoss="21.99" rerouteNo="1" devices="tripinfo_C2_1.0 routing_C2_1.0" vType="tricycle" speedFactor="0.98" vaporized=""/>
    <personinfo id="pf_2.3" depart="135.00" type="ped" speedFactor="0.97" duration="25.30" waitingTime="0.00" timeLoss="2.43" traveltime="25.30">
        <walk depart="135.00" departPos="15.09" arrival="160.30" arrivalPos="3.44" duration="25.30" routeLength="30.72" timeLoss="2.43" maxSpeed="1.34" waitingTime="0.00"/>
    </personinfo>
    <personinfo id="pf_4.1" depart="45.00" type="ped" speedFactor="1.01" duration="117.10" waitingTime="0.00" timeLoss="11.65" traveltime="117.10">
        <walk depart="45.00" departPos="25.00" arrival="101.80" arrivalPos="29.11" duration="56.80" routeLength="72.15" timeLoss="5.51" maxSpeed="1.41" waitingTime="0.00"/>
        <walk depart="101.80" departPos="29.11" arrival="162.10" arrivalPos="29.05" duration="60.30" routeLength="76.20" timeLoss="6.14" maxSpeed="1.41" waitingTime="0.00"/>
    </personinfo>
    <tripinfo id="D1_1.1" depart="74.50" departLane="140483224#1_1" departPos="8.10" departPosLat="0.00" departSpeed="27.78" departDelay="0.00" arrival="162.60" arrivalLane="-793339796#2_2" arrivalPos="82.50" arrivalPosLat="0.00" arrivalSpeed="24.45" duration="88.10" routeLength="1645.38" waitingTime="0.00" waitingCount="0" stopTime="0.00" timeLoss="26.59" rerouteNo="1" devices="tripinfo_D1_1.1 routing_D1_1.1" vType="jeep" speedFactor="1.00" vaporized=""/>
    <tripinfo id="D1_1.2" depart="92.30" departLane="140483224#1_1" departPos="5.10" departPosLat="0.00" departSpeed="26.79" departDelay="0.00" arrival="169.10" arrivalLane="-793339796#2_2" arrivalPos="82.50" arrivalPosLat="0.00" arrivalSpeed="26.75" duration="76.80" routeLength="1648.38" waitingTime="0.00" waitingCount="0" stopTime="0.00" timeLoss="12.72" rerouteNo="1" devices="tripinfo_D1_1.2 routing_D1_1.2" vType="car" speedFactor="0.96" vaporized=""/>
    <tripinfo id="C3_1.1" depart="87.10" departLane="440471861#0_1" departPos="12.10" departPosLat="0.00" departSpeed="27.78" departDelay="0.00" arrival="192.50" arrivalLane="-140483224#1_1" arrivalPos="64.04" arrivalPosLat="-0.00" arrivalSpeed="27.76" duration="105.40" routeLength="1045.78" waitingTime="44.20" waitingCount="1" stopTime="0.00" timeLoss="66.40" rerouteNo="1" devices="tripinfo_C3_1.1 routing_C3_1.1" vType="bus" speedFactor="1.00" vaporized=""/>
    <personinfo id="pf_2.4" depart="180.00" type="ped" speedFactor="1.15" duration="22.90" waitingTime="1.50" timeLoss="3.63" traveltime="22.90">
        <walk depart="180.00" departPos="15.09" arrival="202.90" arrivalPos="3.44" duration="22.90" routeLength="30.72" timeLoss="3.63" maxSpeed="1.59" waitingTime="1.50"/>
    </personinfo>
    <tripinfo id="C3_1.2" depart="156.50" departLane="440471861#0_1" departPos="8.10" departPosLat="0.00" departSpeed="27.78" departDelay="0.00" arrival="205.40" arrivalLane="-140483224#1_2" arrivalPos="64.04" arrivalPosLat="0.00" arrivalSpeed="27.75" duration="48.90" routeLength="1049.78" waitingTime="0.00" waitingCount="0" stopTime="0.00" timeLoss="9.73" rerouteNo="1" devices="tripinfo_C3_1.2 routing_C3_1.2" vType="jeep" speedFactor="1.00" vaporized=""/>
    <personinfo id="pf_4.2" depart="90.00" type="ped" speedFactor="0.97" duration="127.70" waitingTime="5.20" timeLoss="17.58" traveltime="127.70">
        <walk depart="90.00" departPos="25.00" arrival="149.50" arrivalPos="29.11" duration="59.50" routeLength="72.15" timeLoss="5.94" maxSpeed="1.35" waitingTime="0.00"/>
        <walk depart="149.50" departPos="29.11" arrival="217.70" arrivalPos="29.05" duration="68.20" routeLength="76.20" timeLoss="11.63" maxSpeed="1.35" waitingTime="5.20"/>
    </personinfo>
    <tripinfo id="C1_1.3" depart="142.00" departLane="440471861#0_1" departPos="8.10" departPosLat="0.00" departSpeed="27.78" departDelay="0.00" arrival="219.70" arrivalLane="-793339796#2_2" arrivalPos="82.50" arrivalPosLat="0.00" arrivalSpeed="24.31" duration="77.70" routeLength="1650.99" waitingTime="0.00" waitingCount="0" stopTime="0.00" timeLoss="17.23" rerouteNo="1" devices="tripinfo_C1_1.3 routing_C1_1.3" vType="jeep" speedFactor="1.00" vaporized=""/>
    <tripinfo id="A3_1.0" depart="137.20" departLane="-793339796#2_2" departPos="5.10" departPosLat="0.00" departSpeed="26.39" departDelay="10.10" arrival="224.50" arrivalLane="-140483224#1_2" arrivalPos="64.04" arrivalPosLat="0.00" arrivalSpeed="26.32" duration="87.30" routeLength="1080.94" waitingTime="36.50" waitingCount="1" stopTime="0.00" timeLoss="44.70" rerouteNo="1" devices="tripinfo_A3_1.0 routing_A3_1.0" vType="car" speedFactor="0.95" vaporized=""/>
    <tripinfo id="A2_1.3" depart="137.50" departLane="-793339796#2_1" departPos="5.10" departPosLat="0.00" departSpeed="23.74" departDelay="7.60" arrival="225.40" arrivalLane="-440471861#0_2" arrivalPos="31.52" arrivalPosLat="0.00" arrivalSpeed="26.04" duration="87.90" routeLength="1081.27" waitingTime="31.50" waitingCount="1" stopTime="0.00" timeLoss="46.49" rerouteNo="1" devices="tripinfo_A2_1.3 routing_A2_1.3" vType="car" speedFactor="0.94" vaporized=""/>
    <tripinfo id="C1_1.2" depart="82.10" departLane="440471861#0_1" departPos="8.10" departPosLat="0.00" departSpeed="27.78" departDelay="0.00" arrival="228.50" arrivalLane="-793339796#2_2" arrivalPos="82.50" arrivalPosLat="0.00" arrivalSpeed="24.66" duration="146.40" routeLength="1650.99" waitingTime="52.50" waitingCount="1" stopTime="0.00" timeLoss="85.85" rerouteNo="1" devices="tripinfo_C1_1.2 routing_C1_1.2" vType="jeep" speedFactor="1.00" vaporized=""/>
    <tripinfo id="B1_1.0" depart="75.60" departLane="-361257727#0_1" departPos="5.10" departPosLat="0.00" departSpeed="8.25" departDelay="0.00" arrival="229.80" arrivalLane="-793339796#2_2" arrivalPos="82.50" arrivalPosLat="0.00" arrivalSpeed="27.14" duration="154.20" routeLength="1915.44" waitingTime="0.00" waitingCount="0" stopTime="0.00" timeLoss="18.31" rerouteNo="1" devices="tripinfo_B1_1.0 routing_B1_1.0" vType="car" speedFactor="0.99" vaporized=""/>
    <tripinfo id="A2_1.2" depart="137.20" departLane="-793339796#2_1" departPos="8.10" departPosLat="0.00" departSpeed="27.78" departDelay="11.40" arrival="231.80" arrivalLane="-440471861#0_1" arrivalPos="31.52" arrivalPosLat="0.00" arrivalSpeed="27.78" duration="94.60" routeLength="1078.27" waitingTime="37.10" waitingCount="1" stopTime="0.00" timeLoss="55.77" rerouteNo="1" devices="tripinfo_A2_1.2 routing_A2_1.2" vType="jeep" speedFactor="1.00" vaporized=""/>
    <tripinfo id="A3_1.1" depart="193.40" departLane="-793339796#2_1" departPos="2.30" departPosLat="0.00" departSpeed="28.47" departDelay="0.00" arrival="237.50" arrivalLane="-140483224#1_2" arrivalPos="64.04" arrivalPosLat="0.00" arrivalSpeed="28.47" duration="44.10" routeLength="1083.74" waitingTime="0.00" waitingCount="0" stopTime="0.00" timeLoss="4.49" rerouteNo="1" devices="tripinfo_A3_1.1 routing_A3_1.1" vType="tricycle" speedFactor="1.02" vaporized=""/>
    <tripinfo id="B2_1.0" depart="62.00" departLane="-361257727#0_1" departPos="5.10" departPosLat="0.00" departSpeed="7.79" departDelay="0.00" arrival="244.80" arrivalLane="-440471861#0_1" arrivalPos="31.52" arrivalPosLat="-0.00" arrivalSpeed="25.95" duration="182.80" routeLength="1397.68" waitingTime="48.30" waitingCount="1" stopTime="0.00" timeLoss="57.69" rerouteNo="1" devices="tripinfo_B2_1.0 routing_B2_1.0" vType="car" speedFactor="0.93" vaporized=""/>
    <tripinfo id="D2_1.0" depart="93.70" departLane="140483224#1_2" departPos="7.20" departPosLat="0.00" departSpeed="28.45" departDelay="0.00" arrival="248.20" arrivalLane="-145894807#0_1" arrivalPos="260.95" arrivalPosLat="-0.00" arrivalSpeed="8.47" duration="154.50" routeLength="1090.66" waitingTime="59.20" waitingCount="1" stopTime="0.00" timeLoss="71.19" rerouteNo="1" devices="tripinfo_D2_1.0 routing_D2_1.0" vType="truck" speedFactor="1.02" vaporized=""/>
    <personinfo id="pf_2.5" depart="225.00" type="ped" speedFactor="0.98" duration="25.50" waitingTime="0.40" timeLoss="2.83" traveltime="25.50">
        <walk depart="225.00" departPos="15.09" arrival="250.50" arrivalPos="3.44" duration="25.50" routeLength="30.72" timeLoss="2.83" maxSpeed="1.36" waitingTime="0.40"/>
    </personinfo>
    <personinfo id="pf_1.0" depart="0.00" type="ped" speedFactor="1.06" duration="250.70" waitingTime="15.10" timeLoss="39.00" traveltime="250.70">
        <walk depart="0.00" departPos="25.00" arrival="250.70" arrivalPos="3.44" duration="250.70" routeLength="311.67" timeLoss="39.00" maxSpeed="1.47" waitingTime="15.10"/>
    </personinfo>
    <tripinfo id="D2_1.1" depart="134.80" departLane="140483224#1_1" departPos="8.10" departPosLat="0.00" departSpeed="27.78" departDelay="0.00" arrival="253.80" arrivalLane="-145894807#0_1" arrivalPos="260.95" arrivalPosLat="0.00" arrivalSpeed="8.32" duration="119.00" routeLength="1089.76" waitingTime="20.50" waitingCount="1" stopTime="0.00" timeLoss="33.80" rerouteNo="1" devices="tripinfo_D2_1.1 routing_D2_1.1" vType="jeep" speedFactor="1.00" vaporized=""/>
    <tripinfo id="D1_1.3" depart="117.10" departLane="140483224#1_1" departPos="7.20" departPosLat="0.00" departSpeed="25.89" departDelay="0.00" arrival="254.40" arrivalLane="-793339796#2_2" arrivalPos="82.50" arrivalPosLat="0.00" arrivalSpeed="25.53" duration="137.30" routeLength="1646.28" waitingTime="36.40" waitingCount="1" stopTime="0.00" timeLoss="71.20" rerouteNo="1" devices="tripinfo_D1_1.3 routing_D1_1.3" vType="truck" speedFactor="0.93" vaporized=""/>
    <personinfo id="pf_4.3" depart="135.00" type="ped" speedFactor="0.99" duration="120.10" waitingTime="0.00" timeLoss="12.18" traveltime="120.10">
        <walk depart="135.00" departPos="25.00" arrival="193.40" arrivalPos="29.11" duration="58.40" routeLength="72.15" timeLoss="5.91" maxSpeed="1.37" waitingTime="0.00"/>
        <walk depart="193.40" departPos="29.11" arrival="255.10" arrivalPos="29.05" duration="61.70" routeLength="76.20" timeLoss="6.27" maxSpeed="1.37" waitingTime="0.00"/>
    </personinfo>
    <tripinfo id="B2_1.1" depart="129.20" departLane="-361257727#0_1" departPos="8.10" departPosLat="0.00" departSpeed="8.33" departDelay="0.00" arrival="256.90" arrivalLane="-440471861#0_1" arrivalPos="31.52" arrivalPosLat="-0.00" arrivalSpeed="27.75" duration="127.70" routeLength="1394.68" waitingTime="0.00" waitingCount="0" stopTime="0.00" timeLoss="11.04" rerouteNo="1" devices="tripinfo_B2_1.1 routing_B2_1.1" vType="jeep" speedFactor="1.00" vaporized=""/>
    <tripinfo id="C3_1.3" depart="208.00" departLane="440471861#0_1" departPos="2.30" departPosLat="0.00" departSpeed="26.97" departDelay="0.00" arrival="269.50" arrivalLane="-140483224#1_2" arrivalPos="64.04" arrivalPosLat="0.00" arrivalSpeed="26.96" duration="61.50" routeLength="1055.58" waitingTime="9.00" waitingCount="1" stopTime="0.00" timeLoss="20.94" rerouteNo="1" devices="tripinfo_C3_1.3 routing_C3_1.3" vType="tricycle" speedFactor="0.97" vaporized=""/>
    <tripinfo id="A1_1.0" depart="157.90" departLane="-793339796#2_1" departPos="2.30" departPosLat="0.00" departSpeed="26.36" departDelay="0.00" arrival="280.30" arrivalLane="-145894807#0_1" arrivalPos="260.95" arrivalPosLat="0.00" arrivalSpeed="7.89" duration="122.40" routeLength="1094.97" waitingTime="18.80" waitingCount="2" stopTime="0.00" timeLoss="31.02" rerouteNo="1" devices="tripinfo_A1_1.0 routing_A1_1.0" vType="motorcycle" speedFactor="0.95" vaporized=""/>
    <tripinfo id="D3_1.1" depart="201.70" departLane="140483224#1_2" departPos="5.10" departPosLat="0.00" departSpeed="22.64" departDelay="0.00" arrival="288.00" arrivalLane="-440471861#0_2" arrivalPos="31.52" arrivalPosLat="0.00" arrivalSpeed="22.52" duration="86.30" routeLength="1067.97" waitingTime="30.20" waitingCount="1" stopTime="0.00" timeLoss="37.26" rerouteNo="1" devices="tripinfo_D3_1.1 routing_D3_1.1" vType="car" speedFactor="0.82" vaporized=""/>
    <tripinfo id="C1_1.4" depart="227.40" departLane="440471861#0_1" departPos="2.30" departPosLat="0.00" departSpeed="29.51" departDelay="0.00" arrival="288.40" arrivalLane="-793339796#2_2" arrivalPos="82.50" arrivalPosLat="0.00" arrivalSpeed="29.33" duration="61.00" routeLength="1656.79" waitingTime="0.00" waitingCount="0" stopTime="0.00" timeLoss="3.80" rerouteNo="1" devices="tripinfo_C1_1.4 routing_C1_1.4" vType="motorcycle" speedFactor="1.06" vaporized=""/>
    <tripinfo id="D3_1.2" depart="206.80" departLane="140483224#1_2" departPos="5.10" departPosLat="0.00" departSpeed="29.15" departDelay="0.00" arrival="289.30" arrivalLane="-440471861#0_2" arrivalPos="31.52" arrivalPosLat="0.00" arrivalSpeed="25.13" duration="82.50" routeLength="1067.97" waitingTime="29.00" waitingCount="1" stopTime="0.00" timeLoss="44.39" rerouteNo="1" devices="tripinfo_D3_1.2 routing_D3_1.2" vType="car" speedFactor="1.05" vaporized=""/>
    <tripinfo id="D3_1.3" depart="212.70" departLane="140483224#1_2" departPos="8.10" departPosLat="0.00" departSpeed="27.78" departDelay="0.00" arrival="293.80" arrivalLane="-440471861#0_2" arrivalPos="31.52" arrivalPosLat="0.00" arrivalSpeed="27.75" duration="81.10" routeLength="1064.97" waitingTime="23.70" waitingCount="1" stopTime="0.00" timeLoss="41.18" rerouteNo="1" devices="tripinfo_D3_1.3 routing_D3_1.3" vType="jeep" speedFactor="1.00" vaporized=""/>
    <personinfo id="pf_4.4" depart="180.00" type="ped" speedFactor="1.02" duration="116.30" waitingTime="0.20" timeLoss="11.99" traveltime="116.30">
        <walk depart="180.00" departPos="25.00" arrival="236.40" arrivalPos="29.11" duration="56.40" routeLength="72.15" timeLoss="5.67" maxSpeed="1.42" waitingTime="0.00"/>
        <walk depart="236.40" departPos="29.11" arrival="296.30" arrivalPos="29.05" duration="59.90" routeLength="76.20" timeLoss="6.32" maxSpeed="1.42" waitingTime="0.20"/>
    </personinfo>
    <personinfo id="pf_2.6" depart="270.00" type="ped" speedFactor="1.00" duration="26.90" waitingTime="2.20" timeLoss="4.82" traveltime="26.90">
        <walk depart="270.00" departPos="15.09" arrival="296.90" arrivalPos="3.44" duration="26.90" routeLength="30.72" timeLoss="4.82" maxSpeed="1.39" waitingTime="2.20"/>
    </personinfo>
    <tripinfo id="A3_1.2" depart="214.60" departLane="-793339796#2_2" departPos="5.10" departPosLat="0.00" departSpeed="27.11" departDelay="0.00" arrival="308.70" arrivalLane="-140483224#1_2" arrivalPos="64.04" arrivalPosLat="0.00" arrivalSpeed="27.10" duration="94.10" routeLength="1080.94" waitingTime="40.60" waitingCount="1" stopTime="0.00" timeLoss="52.69" rerouteNo="1" devices="tripinfo_A3_1.2 routing_A3_1.2" vType="car" speedFactor="0.98" vaporized=""/>
    <tripinfo id="A3_1.3" depart="222.10" departLane="-793339796#2_1" departPos="2.30" departPosLat="0.00" departSpeed="24.80" departDelay="0.00" arrival="309.60" arrivalLane="-140483224#1_1" arrivalPos="64.04" arrivalPosLat="0.00" arrivalSpeed="24.70" duration="87.50" routeLength="1083.74" waitingTime="27.70" waitingCount="2" stopTime="0.00" timeLoss="42.01" rerouteNo="1" devices="tripinfo_A3_1.3 routing_A3_1.3" vType="motorcycle" speedFactor="0.89" vaporized=""/>
    <tripinfo id="A3_1.4" depart="229.50" departLane="-793339796#2_2" departPos="8.10" departPosLat="0.00" departSpeed="27.78" departDelay="1.90" arrival="313.30" arrivalLane="-140483224#1_2" arrivalPos="64.04" arrivalPosLat="0.00" arrivalSpeed="27.73" duration="83.80" routeLength="1077.94" waitingTime="22.20" waitingCount="1" stopTime="0.00" timeLoss="43.41" rerouteNo="1" devices="tripinfo_A3_1.4 routing_A3_1.4" vType="jeep" speedFactor="1.00" vaporized=""/>
    <tripinfo id="A3_1.5" depart="257.00" departLane="-793339796#2_2" departPos="5.10" departPosLat="0.00" departSpeed="23.93" departDelay="1.60" arrival="315.60" arrivalLane="-140483224#1_2" arrivalPos="64.04" arrivalPosLat="0.00" arrivalSpeed="23.81" duration="58.60" routeLength="1080.94" waitingTime="0.00" waitingCount="0" stopTime="0.00" timeLoss="11.70" rerouteNo="1" devices="tripinfo_A3_1.5 routing_A3_1.5" vType="car" speedFactor="0.86" vaporized=""/>
    <tripinfo id="D2_1.2" depart="185.20" departLane="140483224#1_1" departPos="5.10" departPosLat="0.00" departSpeed="28.21" departDelay="0.00" arrival="327.40" arrivalLane="-145894807#0_1" arrivalPos="260.95" arrivalPosLat="0.00" arrivalSpeed="8.33" duration="142.20" routeLength="1092.76" waitingTime="50.70" waitingCount="1" stopTime="0.00" timeLoss="58.15" rerouteNo="1" devices="tripinfo_D2_1.2 routing_D2_1.2" vType="car" speedFactor="1.02" vaporized=""/>
    <tripinfo id="B2_1.2" depart="150.30" departLane="-361257727#0_1" departPos="2.30" departPosLat="0.00" departSpeed="7.32" departDelay="0.00" arrival="328.40" arrivalLane="-440471861#0_1" arrivalPos="31.52" arrivalPosLat="-0.00" arrivalSpeed="24.37" duration="178.10" routeLength="1400.48" waitingTime="34.80" waitingCount="1" stopTime="0.00" timeLoss="44.48" rerouteNo="1" devices="tripinfo_B2_1.2 routing_B2_1.2" vType="tricycle" speedFactor="0.88" vaporized=""/>
    <tripinfo id="D1_1.4" depart="236.00" departLane="140483224#1_1" departPos="7.20" departPosLat="0.00" departSpeed="26.48" departDelay="0.00" arrival="331.50" arrivalLane="-793339796#2_2" arrivalPos="82.50" arrivalPosLat="0.00" arrivalSpeed="25.50" duration="95.50" routeLength="1646.28" waitingTime="1.20" waitingCount="1" stopTime="0.00" timeLoss="30.85" rerouteNo="1" devices="tripinfo_D1_1.4 routing_D1_1.4" vType="truck" speedFactor="0.95" vaporized=""/>
    <tripinfo id="D2_1.3" depart="223.20" departLane="140483224#1_1" departPos="2.30" departPosLat="0.00" departSpeed="26.42" departDelay="0.00" arrival="333.90" arrivalLane="-145894807#0_1" arrivalPos="260.95" arrivalPosLat="0.00" arrivalSpeed="7.79" duration="110.70" routeLength="1095.56" waitingTime="8.70" waitingCount="1" stopTime="0.00" timeLoss="20.89" rerouteNo="1" devices="tripinfo_D2_1.3 routing_D2_1.3" vType="motorcycle" speedFactor="0.95" vaporized=""/>
    <personinfo id="pf_1.2" depart="90.00" type="ped" speedFactor="1.01" duration="250.60" waitingTime="3.50" timeLoss="28.50" traveltime="250.60">
        <walk depart="90.00" departPos="25.00" arrival="340.60" arrivalPos="3.44" duration="250.60" routeLength="311.67" timeLoss="28.50" maxSpeed="1.40" waitingTime="3.50"/>
    </personinfo>
    <personinfo id="pf_4.5" depart="225.00" type="ped" speedFactor="1.01" duration="117.10" waitingTime="0.00" timeLoss="11.42" traveltime="117.10">
        <walk depart="225.00" departPos="25.00" arrival="281.90" arrivalPos="29.11" duration="56.90" routeLength="72.15" timeLoss="5.50" maxSpeed="1.40" waitingTime="0.00"/>
        <walk depart="281.90" departPos="29.11" arrival="342.10" arrivalPos="29.05" duration="60.20" routeLength="76.20" timeLoss="5.92" maxSpeed="1.40" waitingTime="0.00"/>
    </personinfo>
    <tripinfo id="C3_1.4" depart="303.70" departLane="440471861#0_1" departPos="5.10" departPosLat="0.00" departSpeed="26.86" departDelay="0.00" arrival="350.60" arrivalLane="-140483224#1_2" arrivalPos="64.04" arrivalPosLat="0.00" arrivalSpeed="26.74" duration="46.90" routeLength="1052.78" waitingTime="0.00" waitingCount="0" stopTime="0.00" timeLoss="6.30" rerouteNo="1" devices="tripinfo_C3_1.4 routing_C3_1.4" vType="car" speedFactor="0.97" vaporized=""/>
    <tripinfo id="A1_1.1" depart="257.00" departLane="-793339796#2_1" departPos="8.10" departPosLat="0.00" departSpeed="27.78" departDelay="5.70" arrival="351.00" arrivalLane="-145894807#0_1" arrivalPos="260.95" arrivalPosLat="0.00" arrivalSpeed="8.31" duration="94.00" routeLength="1053.72" waitingTime="0.00" waitingCount="0" stopTime="0.00" timeLoss="4.54" rerouteNo="1" devices="tripinfo_A1_1.1 routing_A1_1.1" vType="jeep" speedFactor="1.00" vaporized=""/>
    <personinfo id="pf_2.7" depart="315.00" type="ped" speedFactor="1.04" duration="46.50" waitingTime="23.00" timeLoss="25.29" traveltime="46.50">
        <walk depart="315.00" departPos="15.09" arrival="361.50" arrivalPos="3.44" duration="46.50" routeLength="30.72" timeLoss="25.29" maxSpeed="1.45" waitingTime="23.00"/>
    </personinfo>
    <personinfo id="pf_1.1" depart="45.00" type="ped" speedFactor="0.94" duration="318.50" waitingTime="52.20" timeLoss="79.34" traveltime="318.50">
        <walk depart="45.00" departPos="25.00" arrival="363.50" arrivalPos="3.44" duration="318.50" routeLength="311.67" timeLoss="79.34" maxSpeed="1.30" waitingTime="52.20"/>
    </personinfo>
    <personinfo id="pf_2.8" depart="360.00" type="ped" speedFactor="1.01" duration="24.40" waitingTime="0.00" timeLoss="2.44" traveltime="24.40">
        <walk depart="360.00" departPos="15.09" arrival="384.40" arrivalPos="3.44" duration="24.40" routeLength="30.72" timeLoss="2.44" maxSpeed="1.40" waitingTime="0.00"/>
    </personinfo>
    <tripinfo id="A2_1.4" depart="317.20" departLane="-793339796#2_2" departPos="5.10" departPosLat="0.00" departSpeed="28.18" departDelay="4.30" arrival="385.30" arrivalLane="-440471861#0_1" arrivalPos="31.52" arrivalPosLat="-0.00" arrivalSpeed="28.16" duration="68.10" routeLength="1081.27" waitingTime="16.00" waitingCount="1" stopTime="0.00" timeLoss="29.69" rerouteNo="1" devices="tripinfo_A2_1.4 routing_A2_1.4" vType="car" speedFactor="1.01" vaporized=""/>
    <tripinfo id="D1_1.5" depart="315.20" departLane="140483224#1_1" departPos="5.10" departPosLat="0.00" departSpeed="31.67" departDelay="0.00" arrival="391.90" arrivalLane="-793339796#2_2" arrivalPos="82.50" arrivalPosLat="0.00" arrivalSpeed="31.58" duration="76.70" routeLength="1648.38" waitingTime="3.30" waitingCount="1" stopTime="0.00" timeLoss="22.60" rerouteNo="1" devices="tripinfo_D1_1.5 routing_D1_1.5" vType="car" speedFactor="1.14" vaporized=""/>
    <personinfo id="pf_3.1" depart="45.00" type="ped" speedFactor="1.08" duration="347.70" waitingTime="0.00" timeLoss="34.29" traveltime="347.70">
        <walk depart="45.00" departPos="25.00" arrival="143.20" arrivalPos="19.11" duration="98.20" routeLength="132.56" timeLoss="9.64" maxSpeed="1.50" waitingTime="0.00"/>
        <walk depart="143.20" departPos="19.11" arrival="392.70" arrivalPos="22.72" duration="249.50" routeLength="336.55" timeLoss="24.65" maxSpeed="1.50" waitingTime="0.00"/>
    </personinfo>
    <tripinfo id="A3_1.6" depart="282.20" departLane="-793339796#2_2" departPos="8.10" departPosLat="0.00" departSpeed="27.78" departDelay="0.00" arrival="393.80" arrivalLane="-140483224#1_2" arrivalPos="64.04" arrivalPosLat="0.00" arrivalSpeed="27.77" duration="111.60" routeLength="1077.94" waitingTime="54.10" waitingCount="1" stopTime="0.00" timeLoss="71.26" rerouteNo="1" devices="tripinfo_A3_1.6 routing_A3_1.6" vType="jeep" speedFactor="1.00" vaporized=""/>
    <tripinfo id="A3_1.7" depart="303.70" departLane="-793339796#2_1" departPos="7.20" departPosLat="0.00" departSpeed="27.69" departDelay="6.70" arrival="395.10" arrivalLane="-140483224#1_2" arrivalPos="64.04" arrivalPosLat="0.00" arrivalSpeed="27.65" duration="91.40" routeLength="1078.84" waitingTime="29.10" waitingCount="1" stopTime="0.00" timeLoss="50.86" rerouteNo="1" devices="tripinfo_A3_1.7 routing_A3_1.7" vType="truck" speedFactor="1.00" vaporized=""/>