<?xml version="1.0" encoding="UTF-8"?>

<!-- generated on 2025-12-04 02:02:20 by Eclipse SUMO sumo Version 1.24.0
<sumoConfiguration xmlns:xsi="http://www.w3.org/2001/XMLSchema-instance" xsi:noNamespaceSchemaLocation="http://sumo.dlr.de/xsd/sumoConfiguration.xsd">

    <input>
        <net-file value="Olivarez_traci\network/baseline.net.xml"/>
        <route-files value="Olivarez_traci\demand\flows_traffic_jam.rou.xml"/>
        <additional-files value="Olivarez_traci\additionals/map.poly.xml,Olivarez_traci\ additionals/detectors.add.xml"/>
    </input>

    <output>
        <tripinfo-output value="Olivarez_traci\output_A2C_Baseline\SP_A2C_Baseline_Jam_trips.xml"/>
        <statistic-output value="Olivarez_traci\output_A2C_Baseline\SP_A2C_Baseline_Jam_stats.xml"/>
    </output>

    <time>
        <begin value="0"/>
        <end value="10800"/>
        <step-length value="0.1"/>
    </time>

    <processing>
        <lateral-resolution value="0.1"/>
        <collision.action value="none"/>
        <collision.check-junctions value="false"/>
        <collision.mingap-factor value="0"/>
    </processing>

    <report>
        <no-warnings value="true"/>
    </report>

    <traci_server>
        <remote-port value="63426"/>
    </traci_server>

    <gui_only>
        <delay value="0"/>
    </gui_only>

</sumoConfiguration>
-->

<tripinfos xmlns:xsi="http://www.w3.org/2001/XMLSchema-instance" xsi:noNamespaceSchemaLocation="http://sumo.dlr.de/xsd/tripinfo_file.xsd">
    <personinfo id="pf_2.0" depart="0.00" type="ped" speedFactor="0.83" duration="29.90" waitingTime="0.00" timeLoss="3.11" traveltime="29.90">
        <walk depart="0.00" departPos="15.09" arrival="29.90" arrivalPos="3.44" duration="29.90" routeLength="30.72" timeLoss="3.11" maxSpeed="1.15" waitingTime="0.00"/>
    </personinfo>
    <personinfo id="pf_2.1" depart="15.00" type="ped" speedFactor="0.87" duration="42.00" waitingTime="13.80" timeLoss="16.65" traveltime="42.00">
        <walk depart="15.00" departPos="15.09" arrival="57.00" arrivalPos="3.44" duration="42.00" routeLength="30.72" timeLoss="16.65" maxSpeed="1.21" waitingTime="13.80"/>
    </personinfo>
    <personinfo id="pf_2.2" depart="30.00" type="ped" speedFactor="0.92" duration="27.40" waitingTime="0.40" timeLoss="3.28" traveltime="27.40">
        <walk depart="30.00" departPos="15.09" arrival="57.40" arrivalPos="3.44" duration="27.40" routeLength="30.72" timeLoss="3.28" maxSpeed="1.27" waitingTime="0.40"/>
    </personinfo>
    <tripinfo id="A2_1.0" depart="3.00" departLane="-793339796#2_1" departPos="5.10" departPosLat="0.00" departSpeed="29.34" departDelay="0.00" arrival="61.00" arrivalLane="-440471861#0_1" arrivalPos="31.52" arrivalPosLat="0.00" arrivalSpeed="29.27" duration="58.00" routeLength="1081.27" waitingTime="10.40" waitingCount="1" stopTime="0.00" timeLoss="21.13" rerouteNo="1" devices="tripinfo_A2_1.0 routing_A2_1.0" vType="car" speedFactor="1.06" vaporized=""/>
    <tripinfo id="A2_1.2" depart="8.90" departLane="-793339796#2_2" departPos="5.10" departPosLat="0.00" departSpeed="27.37" departDelay="0.00" arrival="61.70" arrivalLane="-440471861#0_2" arrivalPos="31.52" arrivalPosLat="0.00" arrivalSpeed="27.28" duration="52.80" routeLength="1081.27" waitingTime="3.50" waitingCount="1" stopTime="0.00" timeLoss="13.20" rerouteNo="1" devices="tripinfo_A2_1.2 routing_A2_1.2" vType="car" speedFactor="0.99" vaporized=""/>
    <tripinfo id="A2_1.1" depart="6.90" departLane="-793339796#2_1" departPos="5.10" departPosLat="0.00" departSpeed="27.02" departDelay="0.00" arrival="63.10" arrivalLane="-440471861#0_1" arrivalPos="31.52" arrivalPosLat="-0.00" arrivalSpeed="26.94" duration="56.20" routeLength="1081.27" waitingTime="1.50" waitingCount="1" stopTime="0.00" timeLoss="16.13" rerouteNo="1" devices="tripinfo_A2_1.1 routing_A2_1.1" vType="car" speedFactor="0.97" vaporized=""/>
    <tripinfo id="A2_1.3" depart="16.40" departLane="-793339796#2_1" departPos="7.20" departPosLat="0.00" departSpeed="26.64" departDelay="0.00" arrival="66.50" arrivalLane="-440471861#0_1" arrivalPos="31.52" arrivalPosLat="0.00" arrivalSpeed="26.61" duration="50.10" routeLength="1079.17" waitingTime="0.00" waitingCount="0" stopTime="0.00" timeLoss="9.54" rerouteNo="1" devices="tripinfo_A2_1.3 routing_A2_1.3" vType="truck" speedFactor="0.96" vaporized=""/>
    <tripinfo id="A3_1.0" depart="15.20" departLane="-793339796#2_2" departPos="8.10" departPosLat="0.00" departSpeed="27.78" departDelay="0.00" arrival="66.60" arrivalLane="-140483224#1_2" arrivalPos="64.04" arrivalPosLat="0.00" arrivalSpeed="27.78" duration="51.40" routeLength="1077.94" waitingTime="0.00" waitingCount="0" stopTime="0.00" timeLoss="11.13" rerouteNo="1" devices="tripinfo_A3_1.0 routing_A3_1.0" vType="jeep" speedFactor="1.00" vaporized=""/>
    <personinfo id="pf_2.3" depart="45.00" type="ped" speedFactor="0.95" duration="26.10" waitingTime="0.00" timeLoss="2.79" traveltime="26.10">
        <walk depart="45.00" departPos="15.09" arrival="71.10" arrivalPos="3.44" duration="26.10" routeLength="30.72" timeLoss="2.79" maxSpeed="1.32" waitingTime="0.00"/>
    </personinfo>
    <tripinfo id="A3_1.1" depart="31.00" departLane="-793339796#2_1" departPos="12.10" departPosLat="0.00" departSpeed="27.78" departDelay="0.00" arrival="78.70" arrivalLane="-140483224#1_2" arrivalPos="64.04" arrivalPosLat="0.00" arrivalSpeed="27.73" duration="47.70" routeLength="1073.94" waitingTime="0.00" waitingCount="0" stopTime="0.00" timeLoss="7.57" rerouteNo="1" devices="tripinfo_A3_1.1 routing_A3_1.1" vType="bus" speedFactor="1.00" vaporized=""/>
    <tripinfo id="D1_1.0" depart="1.20" departLane="140483224#1_1" departPos="5.10" departPosLat="0.00" departSpeed="24.93" departDelay="0.00" arrival="82.00" arrivalLane="-793339796#2_2" arrivalPos="82.50" arrivalPosLat="0.00" arrivalSpeed="24.90" duration="80.80" routeLength="1648.38" waitingTime="0.00" waitingCount="0" stopTime="0.00" timeLoss="11.99" rerouteNo="1" devices="tripinfo_D1_1.0 routing_D1_1.0" vType="car" speedFactor="0.90" vaporized=""/>
    <personinfo id="pf_2.4" depart="60.00" type="ped" speedFactor="1.13" duration="27.80" waitingTime="6.10" timeLoss="8.26" traveltime="27.80">
        <walk depart="60.00" departPos="15.09" arrival="87.80" arrivalPos="3.44" duration="27.80" routeLength="30.72" timeLoss="8.26" maxSpeed="1.57" waitingTime="6.10"/>
    </personinfo>
    <tripinfo id="C3_1.0" depart="6.90" departLane="440471861#0_1" departPos="2.30" departPosLat="0.00" departSpeed="21.33" departDelay="0.00" arrival="97.80" arrivalLane="-140483224#1_1" arrivalPos="64.04" arrivalPosLat="-0.00" arrivalSpeed="29.20" duration="90.90" routeLength="1055.58" waitingTime="45.40" waitingCount="1" stopTime="0.00" timeLoss="53.60" rerouteNo="1" devices="tripinfo_C3_1.0 routing_C3_1.0" vType="motorcycle" speedFactor="1.06" vaporized=""/>
    <tripinfo id="C3_1.3" depart="47.20" departLane="440471861#0_1" departPos="2.30" departPosLat="0.00" departSpeed="29.34" departDelay="0.00" arrival="106.80" arrivalLane="-140483224#1_1" arrivalPos="64.04" arrivalPosLat="0.00" arrivalSpeed="29.31" duration="59.60" routeLength="1055.58" waitingTime="6.70" waitingCount="1" stopTime="0.00" timeLoss="22.27" rerouteNo="1" devices="tripinfo_C3_1.3 routing_C3_1.3" vType="motorcycle" speedFactor="1.06" vaporized=""/>
    <personinfo id="pf_4.0" depart="0.00" type="ped" speedFactor="1.11" duration="107.00" waitingTime="0.00" timeLoss="10.80" traveltime="107.00">
        <walk depart="0.00" departPos="25.00" arrival="52.00" arrivalPos="29.11" duration="52.00" routeLength="72.15" timeLoss="5.21" maxSpeed="1.54" waitingTime="0.00"/>
        <walk depart="52.00" departPos="29.11" arrival="107.00" arrivalPos="29.05" duration="55.00" routeLength="76.20" timeLoss="5.59" maxSpeed="1.54" waitingTime="0.00"/>
    </personinfo>
    <tripinfo id="C3_1.1" depart="8.60" departLane="440471861#0_1" departPos="12.10" departPosLat="0.00" departSpeed="16.81" departDelay="0.00" arrival="110.40" arrivalLane="-140483224#1_1" arrivalPos="64.04" arrivalPosLat="-0.00" arrivalSpeed="27.77" duration="101.80" routeLength="1045.78" waitingTime="38.10" waitingCount="1" stopTime="0.00" timeLoss="62.77" rerouteNo="1" devices="tripinfo_C3_1.1 routing_C3_1.1" vType="bus" speedFactor="1.00" vaporized=""/>
    <personinfo id="pf_2.6" depart="90.00" type="ped" speedFactor="1.18" duration="20.80" waitingTime="0.00" timeLoss="2.03" traveltime="20.80">
        <walk depart="90.00" departPos="15.09" arrival="110.80" arrivalPos="3.44" duration="20.80" routeLength="30.72" timeLoss="2.03" maxSpeed="1.64" waitingTime="0.00"/>
    </personinfo>
    <tripinfo id="C3_1.2" depart="22.80" departLane="440471861#0_1" departPos="7.20" departPosLat="0.00" departSpeed="27.71" departDelay="0.00" arrival="111.80" arrivalLane="-140483224#1_2" arrivalPos="64.04" arrivalPosLat="0.00" arrivalSpeed="27.65" duration="89.00" routeLength="1050.68" waitingTime="27.80" waitingCount="1" stopTime="0.00" timeLoss="49.67" rerouteNo="1" devices="tripinfo_C3_1.2 routing_C3_1.2" vType="truck" speedFactor="1.00" vaporized=""/>
    <tripinfo id="C3_1.4" depart="51.90" departLane="440471861#0_1" departPos="5.10" departPosLat="0.00" departSpeed="29.67" departDelay="0.00" arrival="112.30" arrivalLane="-140483224#1_1" arrivalPos="64.04" arrivalPosLat="-0.00" arrivalSpeed="29.67" duration="60.40" routeLength="1052.78" waitingTime="1.00" waitingCount="1" stopTime="0.00" timeLoss="23.64" rerouteNo="1" devices="tripinfo_C3_1.4 routing_C3_1.4" vType="car" speedFactor="1.07" vaporized=""/>
    <personinfo id="pf_2.5" depart="75.00" type="ped" speedFactor="0.93" duration="38.40" waitingTime="12.20" timeLoss="14.65" traveltime="38.40">
        <walk depart="75.00" departPos="15.09" arrival="113.40" arrivalPos="3.44" duration="38.40" routeLength="30.72" timeLoss="14.65" maxSpeed="1.29" waitingTime="12.20"/>
    </personinfo>
    <tripinfo id="C3_1.5" depart="54.60" departLane="440471861#0_1" departPos="7.20" departPosLat="0.00" departSpeed="28.29" departDelay="0.00" arrival="116.40" arrivalLane="-140483224#1_2" arrivalPos="64.04" arrivalPosLat="0.00" arrivalSpeed="28.28" duration="61.80" routeLength="1050.68" waitingTime="0.00" waitingCount="0" stopTime="0.00" timeLoss="23.34" rerouteNo="1" devices="tripinfo_C3_1.5 routing_C3_1.5" vType="truck" speedFactor="1.02" vaporized=""/>
    <tripinfo id="D3_1.0" depart="15.30" departLane="140483224#1_1" departPos="2.30" departPosLat="0.00" departSpeed="26.42" departDelay="0.00" arrival="124.80" arrivalLane="-440471861#0_2" arrivalPos="31.52" arrivalPosLat="0.00" arrivalSpeed="26.34" duration="109.50" routeLength="1070.77" waitingTime="59.00" waitingCount="1" stopTime="0.00" timeLoss="67.35" rerouteNo="1" devices="tripinfo_D3_1.0 routing_D3_1.0" vType="tricycle" speedFactor="0.95" vaporized=""/>
    <personinfo id="pf_2.7" depart="105.00" type="ped" speedFactor="1.15" duration="27.00" waitingTime="5.80" timeLoss="7.84" traveltime="27.00">
        <walk depart="105.00" departPos="15.09" arrival="132.00" arrivalPos="3.44" duration="27.00" routeLength="30.72" timeLoss="7.84" maxSpeed="1.60" waitingTime="5.80"/>
    </personinfo>
    <tripinfo id="C1_1.0" depart="6.60" departLane="440471861#0_1" departPos="5.10" departPosLat="0.00" departSpeed="27.96" departDelay="0.00" arrival="132.20" arrivalLane="-793339796#2_2" arrivalPos="82.50" arrivalPosLat="0.00" arrivalSpeed="27.90" duration="125.60" routeLength="1653.99" waitingTime="47.40" waitingCount="1" stopTime="0.00" timeLoss="65.34" rerouteNo="1" devices="tripinfo_C1_1.0 routing_C1_1.0" vType="car" speedFactor="1.01" vaporized=""/>
    <tripinfo id="C1_1.1" depart="30.30" departLane="440471861#0_1" departPos="5.10" departPosLat="0.00" departSpeed="26.25" departDelay="0.00" arrival="136.50" arrivalLane="-793339796#2_2" arrivalPos="82.50" arrivalPosLat="0.00" arrivalSpeed="26.21" duration="106.20" routeLength="1653.99" waitingTime="18.50" waitingCount="1" stopTime="0.00" timeLoss="42.06" rerouteNo="1" devices="tripinfo_C1_1.1 routing_C1_1.1" vType="car" speedFactor="0.94" vaporized=""/>
    <personinfo id="pf_4.1" depart="15.00" type="ped" speedFactor="1.02" duration="122.90" waitingTime="6.20" timeLoss="17.71" traveltime="122.90">
        <walk depart="15.00" departPos="25.00" arrival="71.90" arrivalPos="29.11" duration="56.90" routeLength="72.15" timeLoss="5.74" maxSpeed="1.41" waitingTime="0.00"/>
        <walk depart="71.90" departPos="29.11" arrival="137.90" arrivalPos="29.05" duration="66.00" routeLength="76.20" timeLoss="11.97" maxSpeed="1.41" waitingTime="6.20"/>
    </personinfo>
    <tripinfo id="C1_1.2" depart="35.30" departLane="440471861#0_1" departPos="2.30" departPosLat="0.00" departSpeed="31.62" departDelay="0.00" arrival="140.00" arrivalLane="-793339796#2_1" arrivalPos="82.50" arrivalPosLat="-0.00" arrivalSpeed="31.39" duration="104.70" routeLength="1656.79" waitingTime="15.90" waitingCount="1" stopTime="0.00" timeLoss="51.32" rerouteNo="1" devices="tripinfo_C1_1.2 routing_C1_1.2" vType="tricycle" speedFactor="1.14" vaporized=""/>
    <tripinfo id="A2_1.4" depart="46.90" departLane="-793339796#2_1" departPos="5.10" departPosLat="0.00" departSpeed="28.29" departDelay="5.50" arrival="142.40" arrivalLane="-440471861#0_1" arrivalPos="31.52" arrivalPosLat="0.00" arrivalSpeed="28.23" duration="95.50" routeLength="1081.27" waitingTime="47.00" waitingCount="1" stopTime="0.00" timeLoss="57.21" rerouteNo="1" devices="tripinfo_A2_1.4 routing_A2_1.4" vType="car" speedFactor="1.02" vaporized=""/>
    <tripinfo id="A2_1.6" depart="48.10" departLane="-793339796#2_1" departPos="5.10" departPosLat="0.00" departSpeed="27.03" departDelay="0.00" arrival="144.00" arrivalLane="-440471861#0_1" arrivalPos="31.52" arrivalPosLat="-0.00" arrivalSpeed="27.02" duration="95.90" routeLength="1081.27" waitingTime="41.40" waitingCount="1" stopTime="0.00" timeLoss="55.82" rerouteNo="1" devices="tripinfo_A2_1.6 routing_A2_1.6" vType="car" speedFactor="0.97" vaporized=""/>
    <personinfo id="pf_2.8" depart="120.00" type="ped" speedFactor="1.01" duration="24.30" waitingTime="0.00" timeLoss="2.29" traveltime="24.30">
        <walk depart="120.00" departPos="15.09" arrival="144.30" arrivalPos="3.44" duration="24.30" routeLength="30.72" timeLoss="2.29" maxSpeed="1.40" waitingTime="0.00"/>
    </personinfo>
    <tripinfo id="A2_1.5" depart="46.90" departLane="-793339796#2_2" departPos="5.10" departPosLat="0.00" departSpeed="24.66" departDelay="0.30" arrival="144.30" arrivalLane="-440471861#0_2" arrivalPos="31.52" arrivalPosLat="0.00" arrivalSpeed="24.55" duration="97.40" routeLength="1081.27" waitingTime="44.60" waitingCount="1" stopTime="0.00" timeLoss="53.47" rerouteNo="1" devices="tripinfo_A2_1.5 routing_A2_1.5" vType="car" speedFactor="0.89" vaporized=""/>
    <tripinfo id="A2_1.8" depart="62.60" departLane="-793339796#2_1" departPos="5.10" departPosLat="0.00" departSpeed="27.81" departDelay="8.50" arrival="145.60" arrivalLane="-440471861#0_1" arrivalPos="31.52" arrivalPosLat="0.00" arrivalSpeed="27.72" duration="83.00" routeLength="1081.27" waitingTime="28.00" waitingCount="1" stopTime="0.00" timeLoss="44.08" rerouteNo="1" devices="tripinfo_A2_1.8 routing_A2_1.8" vType="car" speedFactor="1.00" vaporized=""/>
    <tripinfo id="A2_1.7" depart="48.40" departLane="-793339796#2_2" departPos="5.10" departPosLat="0.00" departSpeed="21.17" departDelay="0.00" arrival="148.20" arrivalLane="-440471861#0_1" arrivalPos="31.52" arrivalPosLat="-0.00" arrivalSpeed="21.08" duration="99.80" routeLength="1081.27" waitingTime="36.60" waitingCount="1" stopTime="0.00" timeLoss="48.63" rerouteNo="1" devices="tripinfo_A2_1.7 routing_A2_1.7" vType="car" speedFactor="0.76" vaporized=""/>
    <personinfo id="pf_4.2" depart="30.00" type="ped" speedFactor="1.01" duration="121.50" waitingTime="3.80" timeLoss="15.82" traveltime="121.50">
        <walk depart="30.00" departPos="25.00" arrival="87.70" arrivalPos="29.11" duration="57.70" routeLength="72.15" timeLoss="6.30" maxSpeed="1.40" waitingTime="0.50"/>
        <walk depart="87.70" departPos="29.11" arrival="151.50" arrivalPos="29.05" duration="63.80" routeLength="76.20" timeLoss="9.52" maxSpeed="1.40" waitingTime="3.30"/>
    </personinfo>
    <tripinfo id="C1_1.3" depart="56.20" departLane="440471861#0_1" departPos="8.10" departPosLat="0.00" departSpeed="27.78" departDelay="0.00" arrival="152.20" arrivalLane="-793339796#2_2" arrivalPos="82.50" arrivalPosLat="0.00" arrivalSpeed="24.71" duration="96.00" routeLength="1650.99" waitingTime="0.00" waitingCount="0" stopTime="0.00" timeLoss="35.43" rerouteNo="1" devices="tripinfo_C1_1.3 routing_C1_1.3" vType="jeep" speedFactor="1.00" vaporized=""/>
    <tripinfo id="C1_1.5" depart="63.70" departLane="440471861#0_1" departPos="5.10" departPosLat="0.00" departSpeed="28.30" departDelay="0.00" arrival="153.50" arrivalLane="-793339796#2_2" arrivalPos="82.50" arrivalPosLat="0.00" arrivalSpeed="26.47" duration="89.80" routeLength="1653.99" waitingTime="0.00" waitingCount="0" stopTime="0.00" timeLoss="30.26" rerouteNo="1" devices="tripinfo_C1_1.5 routing_C1_1.5" vType="car" speedFactor="1.02" vaporized=""/>
    <tripinfo id="C2_1.0" depart="40.30" departLane="440471861#0_2" departPos="5.10" departPosLat="0.00" departSpeed="26.65" departDelay="0.00" arrival="154.40" arrivalLane="-145894807#0_1" arrivalPos="260.95" arrivalPosLat="0.00" arrivalSpeed="7.93" duration="114.10" routeLength="1082.06" waitingTime="10.50" waitingCount="1" stopTime="0.00" timeLoss="25.16" rerouteNo="1" devices="tripinfo_C2_1.0 routing_C2_1.0" vType="car" speedFactor="0.96" vaporized=""/>
    <personinfo id="pf_2.9" depart="135.00" type="ped" speedFactor="1.17" duration="21.00" waitingTime="0.00" timeLoss="2.12" traveltime="21.00">
        <walk depart="135.00" departPos="15.09" arrival="156.00" arrivalPos="3.44" duration="21.00" routeLength="30.72" timeLoss="2.12" maxSpeed="1.63" waitingTime="0.00"/>
    </personinfo>
    <tripinfo id="C2_1.1" depart="54.60" departLane="440471861#0_2" departPos="5.10" departPosLat="0.00" departSpeed="27.21" departDelay="0.00" arrival="156.30" arrivalLane="-145894807#0_1" arrivalPos="260.95" arrivalPosLat="0.00" arrivalSpeed="8.09" duration="101.70" routeLength="1082.06" waitingTime="0.00" waitingCount="0" stopTime="0.00" timeLoss="14.60" rerouteNo="1" devices="tripinfo_C2_1.1 routing_C2_1.1" vType="car" speedFactor="0.98" vaporized=""/>
    <tripinfo id="B2_1.0" depart="13.90" departLane="-361257727#0_1" departPos="2.30" departPosLat="0.00" departSpeed="8.68" departDelay="0.00" arrival="158.30" arrivalLane="-440471861#0_1" arrivalPos="31.52" arrivalPosLat="-0.00" arrivalSpeed="28.73" duration="144.40" routeLength="1400.48" waitingTime="26.30" waitingCount="1" stopTime="0.00" timeLoss="31.70" rerouteNo="1" devices="tripinfo_B2_1.0 routing_B2_1.0" vType="motorcycle" speedFactor="1.04" vaporized=""/>
    <tripinfo id="D1_1.1" depart="47.90" departLane="140483224#1_1" departPos="5.10" departPosLat="0.00" departSpeed="31.78" departDelay="0.00" arrival="159.00" arrivalLane="-793339796#2_2" arrivalPos="82.50" arrivalPosLat="0.00" arrivalSpeed="30.55" duration="111.10" routeLength="1648.38" waitingTime="27.10" waitingCount="1" stopTime="0.00" timeLoss="57.06" rerouteNo="1" devices="tripinfo_D1_1.1 routing_D1_1.1" vType="car" speedFactor="1.14" vaporized=""/>
    <tripinfo id="C1_1.4" depart="57.10" departLane="440471861#0_1" departPos="8.10" departPosLat="0.00" departSpeed="26.02" departDelay="0.00" arrival="159.80" arrivalLane="-793339796#2_1" arrivalPos="82.50" arrivalPosLat="-0.00" arrivalSpeed="24.46" duration="102.70" routeLength="1650.99" waitingTime="0.00" waitingCount="0" stopTime="0.00" timeLoss="42.14" rerouteNo="1" devices="tripinfo_C1_1.4 routing_C1_1.4" vType="jeep" speedFactor="1.00" vaporized=""/>
    <tripinfo id="A3_1.2" depart="62.60" departLane="-793339796#2_2" departPos="7.20" departPosLat="0.00" departSpeed="24.90" departDelay="1.60" arrival="162.00" arrivalLane="-140483224#1_1" arrivalPos="64.04" arrivalPosLat="-0.00" arrivalSpeed="24.85" duration="99.40" routeLength="1078.84" waitingTime="26.10" waitingCount="2" stopTime="0.00" timeLoss="54.40" rerouteNo="1" devices="tripinfo_A3_1.2 routing_A3_1.2" vType="truck" speedFactor="0.90" vaporized=""/>
    <tripinfo id="D1_1.2" depart="74.50" departLane="140483224#1_1" departPos="2.30" departPosLat="0.00" departSpeed="26.46" departDelay="0.00" arrival="164.50" arrivalLane="-793339796#2_2" arrivalPos="82.50" arrivalPosLat="0.00" arrivalSpeed="26.46" duration="90.00" routeLength="1651.18" waitingTime="0.00" waitingCount="0" stopTime="0.00" timeLoss="25.21" rerouteNo="1" devices="tripinfo_D1_1.2 routing_D1_1.2" vType="tricycle" speedFactor="0.95" vaporized=""/>
    <tripinfo id="D2_1.0" depart="25.10" departLane="140483224#1_1" departPos="2.30" departPosLat="0.00" departSpeed="28.06" departDelay="0.00" arrival="166.20" arrivalLane="-145894807#0_1" arrivalPos="260.95" arrivalPosLat="0.00" arrivalSpeed="8.33" duration="141.10" routeLength="1095.56" waitingTime="49.70" waitingCount="1" stopTime="0.00" timeLoss="56.49" rerouteNo="1" devices="tripinfo_D2_1.0 routing_D2_1.0" vType="tricycle" speedFactor="1.01" vaporized=""/>
    <tripinfo id="D1_1.3" depart="92.30" departLane="140483224#1_1" departPos="5.10" departPosLat="0.00" departSpeed="27.97" departDelay="0.00" arrival="167.70" arrivalLane="-793339796#2_2" arrivalPos="82.50" arrivalPosLat="0.00" arrivalSpeed="27.88" duration="75.40" routeLength="1648.38" waitingTime="0.00" waitingCount="0" stopTime="0.00" timeLoss="14.17" rerouteNo="1" devices="tripinfo_D1_1.3 routing_D1_1.3" vType="car" speedFactor="1.01" vaporized=""/>
    <tripinfo id="D2_1.1" depart="39.10" departLane="140483224#1_1" departPos="8.10" departPosLat="0.00" departSpeed="27.78" departDelay="0.00" arrival="169.90" arrivalLane="-145894807#0_1" arrivalPos="260.95" arrivalPosLat="0.00" arrivalSpeed="8.32" duration="130.80" routeLength="1089.76" waitingTime="30.50" waitingCount="1" stopTime="0.00" timeLoss="45.53" rerouteNo="1" devices="tripinfo_D2_1.1 routing_D2_1.1" vType="jeep" speedFactor="1.00" vaporized=""/>
    <personinfo id="pf_4.4" depart="60.00" type="ped" speedFactor="1.05" duration="113.20" waitingTime="0.00" timeLoss="11.13" traveltime="113.20">
        <walk depart="60.00" departPos="25.00" arrival="114.90" arrivalPos="29.11" duration="54.90" routeLength="72.15" timeLoss="5.26" maxSpeed="1.45" waitingTime="0.00"/>
        <walk depart="114.90" departPos="29.11" arrival="173.20" arrivalPos="29.05" duration="58.30" routeLength="76.20" timeLoss="5.87" maxSpeed="1.45" waitingTime="0.00"/>
    </personinfo>
    <tripinfo id="D2_1.2" depart="67.30" departLane="140483224#1_1" departPos="5.10" departPosLat="0.00" departSpeed="27.46" departDelay="0.00" arrival="173.50" arrivalLane="-145894807#0_1" arrivalPos="260.95" arrivalPosLat="0.00" arrivalSpeed="8.11" duration="106.20" routeLength="1092.76" waitingTime="8.30" waitingCount="3" stopTime="0.00" timeLoss="19.84" rerouteNo="1" devices="tripinfo_D2_1.2 routing_D2_1.2" vType="car" speedFactor="0.99" vaporized=""/>
    <personinfo id="pf_2.10" depart="150.00" type="ped" speedFactor="0.99" duration="24.70" waitingTime="0.00" timeLoss="2.46" traveltime="24.70">
        <walk depart="150.00" departPos="15.09" arrival="174.70" arrivalPos="3.44" duration="24.70" routeLength="30.72" timeLoss="2.46" maxSpeed="1.38" waitingTime="0.00"/>
    </personinfo>
    <tripinfo id="A1_1.0" depart="91.80" departLane="-793339796#2_1" departPos="8.10" departPosLat="0.00" departSpeed="27.78" departDelay="7.80" arrival="185.80" arrivalLane="-145894807#0_1" arrivalPos="260.95" arrivalPosLat="0.00" arrivalSpeed="8.31" duration="94.00" routeLength="1053.72" waitingTime="0.00" waitingCount="0" stopTime="0.00" timeLoss="4.57" rerouteNo="1" devices="tripinfo_A1_1.0 routing_A1_1.0" vType="jeep" speedFactor="1.00" vaporized=""/>
    <personinfo id="pf_4.5" depart="75.00" type="ped" speedFactor="1.12" duration="114.10" waitingTime="8.60" timeLoss="19.11" traveltime="114.10">
        <walk depart="75.00" departPos="25.00" arrival="134.70" arrivalPos="29.11" duration="59.70" routeLength="72.15" timeLoss="13.50" maxSpeed="1.56" waitingTime="8.60"/>
        <walk depart="134.70" departPos="29.11" arrival="189.10" arrivalPos="29.05" duration="54.40" routeLength="76.20" timeLoss="5.61" maxSpeed="1.56" waitingTime="0.00"/>
    </personinfo>
    <tripinfo id="C3_1.6" depart="70.30" departLane="440471861#0_1" departPos="5.10" departPosLat="0.00" departSpeed="23.65" departDelay="0.00" arrival="193.40" arrivalLane="-140483224#1_1" arrivalPos="64.04" arrivalPosLat="0.00" arrivalSpeed="23.52" duration="123.10" routeLength="1052.78" waitingTime="63.30" waitingCount="2" stopTime="0.00" timeLoss="76.98" rerouteNo="1" devices="tripinfo_C3_1.6 routing_C3_1.6" vType="car" speedFactor="0.85" vaporized=""/>
    <tripinfo id="C3_1.8" depart="109.30" departLane="440471861#0_1" departPos="5.10" departPosLat="0.00" departSpeed="27.88" departDelay="0.00" arrival="194.70" arrivalLane="-140483224#1_1" arrivalPos="64.04" arrivalPosLat="0.00" arrivalSpeed="26.24" duration="85.40" routeLength="1052.78" waitingTime="24.30" waitingCount="2" stopTime="0.00" timeLoss="46.24" rerouteNo="1" devices="tripinfo_C3_1.8 routing_C3_1.8" vType="car" speedFactor="1.00" vaporized=""/>
    <personinfo id="pf_2.11" depart="165.00" type="ped" speedFactor="1.02" duration="30.10" waitingTime="6.00" timeLoss="8.41" traveltime="30.10">
        <walk depart="165.00" departPos="15.09" arrival="195.10" arrivalPos="3.44" duration="30.10" routeLength="30.72" timeLoss="8.41" maxSpeed="1.42" waitingTime="6.00"/>
    </personinfo>
    <tripinfo id="C3_1.9" depart="125.10" departLane="440471861#0_1" departPos="5.10" departPosLat="0.00" departSpeed="29.43" departDelay="0.00" arrival="195.90" arrivalLane="-140483224#1_1" arrivalPos="64.04" arrivalPosLat="0.00" arrivalSpeed="28.08" duration="70.80" routeLength="1052.78" waitingTime="8.30" waitingCount="1" stopTime="0.00" timeLoss="33.75" rerouteNo="1" devices="tripinfo_C3_1.9 routing_C3_1.9" vType="car" speedFactor="1.06" vaporized=""/>
    <tripinfo id="C3_1.7" depart="87.10" departLane="440471861#0_1" departPos="8.10" departPosLat="0.00" departSpeed="27.78" departDelay="0.00" arrival="199.70" arrivalLane="-140483224#1_2" arrivalPos="64.04" arrivalPosLat="0.00" arrivalSpeed="27.73" duration="112.60" routeLength="1049.78" waitingTime="43.60" waitingCount="2" stopTime="0.00" timeLoss="73.50" rerouteNo="1" devices="tripinfo_C3_1.7 routing_C3_1.7" vType="jeep" speedFactor="1.00" vaporized=""/>
    <tripinfo id="C3_1.10" depart="132.90" departLane="440471861#0_1" departPos="7.20" departPosLat="0.00" departSpeed="28.31" departDelay="0.00" arrival="200.70" arrivalLane="-140483224#1_1" arrivalPos="64.04" arrivalPosLat="-0.00" arrivalSpeed="29.34" duration="67.80" routeLength="1050.68" waitingTime="0.00" waitingCount="0" stopTime="0.00" timeLoss="30.77" rerouteNo="1" devices="tripinfo_C3_1.10 routing_C3_1.10" vType="truck" speedFactor="1.06" vaporized=""/>
    <tripinfo id="D3_1.1" depart="94.70" departLane="140483224#1_2" departPos="5.10" departPosLat="0.00" departSpeed="19.70" departDelay="0.00" arrival="202.40" arrivalLane="-440471861#0_2" arrivalPos="31.52" arrivalPosLat="0.00" arrivalSpeed="29.87" duration="107.70" routeLength="1067.97" waitingTime="57.10" waitingCount="1" stopTime="0.00" timeLoss="70.47" rerouteNo="1" devices="tripinfo_D3_1.1 routing_D3_1.1" vType="car" speedFactor="1.08" vaporized=""/>
    <tripinfo id="D3_1.2" depart="121.80" departLane="140483224#1_1" departPos="7.20" departPosLat="0.00" departSpeed="27.42" departDelay="0.00" arrival="211.00" arrivalLane="-440471861#0_2" arrivalPos="31.52" arrivalPosLat="0.00" arrivalSpeed="27.39" duration="89.20" routeLength="1065.87" waitingTime="32.70" waitingCount="1" stopTime="0.00" timeLoss="48.80" rerouteNo="1" devices="tripinfo_D3_1.2 routing_D3_1.2" vType="truck" speedFactor="0.99" vaporized=""/>
    <personinfo id="pf_4.6" depart="90.00" type="ped" speedFactor="1.01" duration="122.10" waitingTime="4.20" timeLoss="15.88" traveltime="122.10">
        <walk depart="90.00" departPos="25.00" arrival="151.50" arrivalPos="29.11" duration="61.50" routeLength="72.15" timeLoss="9.84" maxSpeed="1.40" waitingTime="4.20"/>
        <walk depart="151.50" departPos="29.11" arrival="212.10" arrivalPos="29.05" duration="60.60" routeLength="76.20" timeLoss="6.04" maxSpeed="1.40" waitingTime="0.00"/>
    </personinfo>
    <personinfo id="pf_2.12" depart="180.00" type="ped" speedFactor="0.97" duration="32.50" waitingTime="7.20" timeLoss="9.77" traveltime="32.50">
        <walk depart="180.00" departPos="15.09" arrival="212.50" arrivalPos="3.44" duration="32.50" routeLength="30.72" timeLoss="9.77" maxSpeed="1.35" waitingTime="7.20"/>
    </personinfo>
    <tripinfo id="D3_1.3" depart="128.50" departLane="140483224#1_1" departPos="7.20" departPosLat="0.00" departSpeed="26.19" departDelay="0.00" arrival="212.90" arrivalLane="-440471861#0_2" arrivalPos="31.52" arrivalPosLat="0.00" arrivalSpeed="26.14" duration="84.40" routeLength="1065.87" waitingTime="25.90" waitingCount="1" stopTime="0.00" timeLoss="42.02" rerouteNo="1" devices="tripinfo_D3_1.3 routing_D3_1.3" vType="truck" speedFactor="0.94" vaporized=""/>
    <personinfo id="pf_4.3" depart="45.00" type="ped" speedFactor="0.69" duration="173.90" waitingTime="2.30" timeLoss="19.19" traveltime="173.90">
        <walk depart="45.00" departPos="25.00" arrival="128.50" arrivalPos="29.11" duration="83.50" routeLength="72.15" timeLoss="8.26" maxSpeed="0.96" waitingTime="0.00"/>
        <walk depart="128.50" departPos="29.11" arrival="218.90" arrivalPos="29.05" duration="90.40" routeLength="76.20" timeLoss="10.93" maxSpeed="0.96" waitingTime="2.30"/>
    </personinfo>
    <personinfo id="pf_2.13" depart="195.00" type="ped" speedFactor="1.18" duration="28.60" waitingTime="7.70" timeLoss="9.85" traveltime="28.60">