<?xml version="1.0" encoding="UTF-8"?>

<!-- generated on 2026-02-16 01:38:53 by Eclipse SUMO sumo Version 1.24.0
<sumoConfiguration xmlns:xsi="http://www.w3.org/2001/XMLSchema-instance" xsi:noNamespaceSchemaLocation="http://sumo.dlr.de/xsd/sumoConfiguration.xsd">

    <input>
        <net-file value="Olivarez_traci\network/baseline.net.xml"/>
        <route-files value="Olivarez_traci\demand\flows_normal_traffic.rou.xml"/>
        <additional-files value="Olivarez_traci\additionals/map.poly.xml,Olivarez_traci\ additionals/detectors.add.xml"/>
    </input>

    <output>
        <tripinfo-output value="Olivarez_traci\output_A2C_Baseline\SP_A2C_Baseline_Normal_trips.xml"/>
        <statistic-output value="Olivarez_traci\output_A2C_Baseline\SP_A2C_Baseline_Normal_stats.xml"/>
    </output>

    <time>
        <begin value="0"/>
        <end value="10800"/>
        <step-length value="0.1"/>
    </time>

    <processing>
        <lateral-resolution value="0.1"/>
        <collision.action value="none"/>
        <collision.check-junctions value="false"/>
        <collision.mingap-factor value="0"/>
    </processing>

    <report>
        <no-warnings value="true"/>
    </report>

    <traci_server>
        <remote-port value="51569"/>
    </traci_server>

    <gui_only>
        <delay value="0"/>
    </gui_only>

</sumoConfiguration>
-->

<tripinfos xmlns:xsi="http://www.w3.org/2001/XMLSchema-instance" xsi:noNamespaceSchemaLocation="http://sumo.dlr.de/xsd/tripinfo_file.xsd">
    <personinfo id="pf_2.0" depart="0.00" type="ped" speedFactor="1.03" duration="23.90" waitingTime="0.00" timeLoss="2.52" traveltime="23.90">
        <walk depart="0.00" departPos="15.09" arrival="23.90" arrivalPos="3.44" duration="23.90" routeLength="30.72" timeLoss="2.52" maxSpeed="1.44" waitingTime="0.00"/>
    </personinfo>
    <tripinfo id="D3_1.0" depart="15.30" departLane="140483224#1_2" departPos="5.10" departPosLat="0.00" departSpeed="27.91" departDelay="0.00" arrival="59.80" arrivalLane="-440471861#0_2" arrivalPos="31.52" arrivalPosLat="0.00" arrivalSpeed="27.80" duration="44.50" routeLength="1067.97" waitingTime="0.00" waitingCount="0" stopTime="0.00" timeLoss="4.68" rerouteNo="1" devices="tripinfo_D3_1.0 routing_D3_1.0" vType="car" speedFactor="1.00" vaporized=""/>
    <tripinfo id="A2_1.0" depart="8.90" departLane="-793339796#2_1" departPos="2.30" departPosLat="0.00" departSpeed="27.90" departDelay="0.00" arrival="67.70" arrivalLane="-440471861#0_1" arrivalPos="31.52" arrivalPosLat="-0.00" arrivalSpeed="27.76" duration="58.80" routeLength="1084.07" waitingTime="15.50" waitingCount="1" stopTime="0.00" timeLoss="19.91" rerouteNo="1" devices="tripinfo_A2_1.0 routing_A2_1.0" vType="motorcycle" speedFactor="1.00" vaporized=""/>
    <personinfo id="pf_2.1" depart="45.00" type="ped" speedFactor="1.00" duration="24.50" waitingTime="0.00" timeLoss="2.34" traveltime="24.50">
        <walk depart="45.00" departPos="15.09" arrival="69.50" arrivalPos="3.44" duration="24.50" routeLength="30.72" timeLoss="2.34" maxSpeed="1.39" waitingTime="0.00"/>
    </personinfo>
    <tripinfo id="A2_1.1" depart="16.40" departLane="-793339796#2_1" departPos="5.10" departPosLat="0.00" departSpeed="26.58" departDelay="0.00" arrival="72.30" arrivalLane="-440471861#0_2" arrivalPos="31.52" arrivalPosLat="0.00" arrivalSpeed="26.53" duration="55.90" routeLength="1081.27" waitingTime="5.30" waitingCount="1" stopTime="0.00" timeLoss="15.17" rerouteNo="1" devices="tripinfo_A2_1.1 routing_A2_1.1" vType="car" speedFactor="0.96" vaporized=""/>
    <tripinfo id="D1_1.0" depart="1.20" departLane="140483224#1_1" departPos="5.10" departPosLat="0.00" departSpeed="23.74" departDelay="0.00" arrival="84.70" arrivalLane="-793339796#2_2" arrivalPos="82.50" arrivalPosLat="0.00" arrivalSpeed="23.72" duration="83.50" routeLength="1648.38" waitingTime="0.00" waitingCount="0" stopTime="0.00" timeLoss="11.21" rerouteNo="1" devices="tripinfo_D1_1.0 routing_D1_1.0" vType="car" speedFactor="0.85" vaporized=""/>
    <tripinfo id="C1_1.0" depart="35.30" departLane="440471861#0_1" departPos="5.10" departPosLat="0.00" departSpeed="28.06" departDelay="0.00" arrival="113.00" arrivalLane="-793339796#2_2" arrivalPos="82.50" arrivalPosLat="0.00" arrivalSpeed="27.97" duration="77.70" routeLength="1653.99" waitingTime="0.00" waitingCount="0" stopTime="0.00" timeLoss="17.71" rerouteNo="1" devices="tripinfo_C1_1.0 routing_C1_1.0" vType="car" speedFactor="1.01" vaporized=""/>
    <tripinfo id="C3_1.0" depart="22.80" departLane="440471861#0_1" departPos="8.10" departPosLat="0.00" departSpeed="27.78" departDelay="0.00" arrival="114.90" arrivalLane="-140483224#1_2" arrivalPos="64.04" arrivalPosLat="0.00" arrivalSpeed="27.74" duration="92.10" routeLength="1049.78" waitingTime="35.70" waitingCount="1" stopTime="0.00" timeLoss="52.97" rerouteNo="1" devices="tripinfo_C3_1.0 routing_C3_1.0" vType="jeep" speedFactor="1.00" vaporized=""/>
    <personinfo id="pf_2.2" depart="90.00" type="ped" speedFactor="1.02" duration="30.00" waitingTime="5.90" timeLoss="8.25" traveltime="30.00">
        <walk depart="90.00" departPos="15.09" arrival="120.00" arrivalPos="3.44" duration="30.00" routeLength="30.72" timeLoss="8.25" maxSpeed="1.41" waitingTime="5.90"/>
    </personinfo>
    <personinfo id="pf_4.0" depart="0.00" type="ped" speedFactor="0.95" duration="124.50" waitingTime="0.00" timeLoss="12.20" traveltime="124.50">
        <walk depart="0.00" departPos="25.00" arrival="60.60" arrivalPos="29.11" duration="60.60" routeLength="72.15" timeLoss="5.98" maxSpeed="1.32" waitingTime="0.00"/>
        <walk depart="60.60" departPos="29.11" arrival="124.50" arrivalPos="29.05" duration="63.90" routeLength="76.20" timeLoss="6.22" maxSpeed="1.32" waitingTime="0.00"/>
    </personinfo>
    <tripinfo id="C2_1.0" depart="40.30" departLane="440471861#0_2" departPos="2.30" departPosLat="0.00" departSpeed="27.09" departDelay="0.00" arrival="128.80" arrivalLane="-145894807#0_1" arrivalPos="260.95" arrivalPosLat="0.00" arrivalSpeed="8.07" duration="88.50" routeLength="1084.86" waitingTime="0.00" waitingCount="0" stopTime="0.00" timeLoss="0.98" rerouteNo="1" devices="tripinfo_C2_1.0 routing_C2_1.0" vType="tricycle" speedFactor="0.98" vaporized=""/>
    <tripinfo id="C1_1.1" depart="63.70" departLane="440471861#0_1" departPos="12.10" departPosLat="0.00" departSpeed="27.78" departDelay="0.00" arrival="149.60" arrivalLane="-793339796#2_2" arrivalPos="82.50" arrivalPosLat="0.00" arrivalSpeed="24.49" duration="85.90" routeLength="1646.99" waitingTime="0.00" waitingCount="0" stopTime="0.00" timeLoss="25.42" rerouteNo="1" devices="tripinfo_C1_1.1 routing_C1_1.1" vType="bus" speedFactor="1.00" vaporized=""/>
    <tripinfo id="C1_1.2" depart="82.10" departLane="440471861#0_1" departPos="8.10" departPosLat="0.00" departSpeed="27.78" departDelay="0.00" arrival="158.40" arrivalLane="-793339796#2_2" arrivalPos="82.50" arrivalPosLat="0.00" arrivalSpeed="24.51" duration="76.30" routeLength="1650.99" waitingTime="0.00" waitingCount="0" stopTime="0.00" timeLoss="15.69" rerouteNo="1" devices="tripinfo_C1_1.2 routing_C1_1.2" vType="jeep" speedFactor="1.00" vaporized=""/>
    <personinfo id="pf_2.3" depart="135.00" type="ped" speedFactor="0.97" duration="27.00" waitingTime="1.60" timeLoss="4.13" traveltime="27.00">
        <walk depart="135.00" departPos="15.09" arrival="162.00" arrivalPos="3.44" duration="27.00" routeLength="30.72" timeLoss="4.13" maxSpeed="1.34" waitingTime="1.60"/>
    </personinfo>
    <personinfo id="pf_4.1" depart="45.00" type="ped" speedFactor="1.01" duration="117.10" waitingTime="0.00" timeLoss="11.65" traveltime="117.10">
        <walk depart="45.00" departPos="25.00" arrival="101.80" arrivalPos="29.11" duration="56.80" routeLength="72.15" timeLoss="5.51" maxSpeed="1.41" waitingTime="0.00"/>
        <walk depart="101.80" departPos="29.11" arrival="162.10" arrivalPos="29.05" duration="60.30" routeLength="76.20" timeLoss="6.14" maxSpeed="1.41" waitingTime="0.00"/>
    </personinfo>
    <tripinfo id="D1_1.1" depart="74.50" departLane="140483224#1_1" departPos="8.10" departPosLat="0.00" departSpeed="27.78" departDelay="0.00" arrival="162.40" arrivalLane="-793339796#2_2" arrivalPos="82.50" arrivalPosLat="0.00" arrivalSpeed="24.32" duration="87.90" routeLength="1645.38" waitingTime="0.00" waitingCount="0" stopTime="0.00" timeLoss="26.40" rerouteNo="1" devices="tripinfo_D1_1.1 routing_D1_1.1" vType="jeep" speedFactor="1.00" vaporized=""/>
    <tripinfo id="D1_1.2" depart="92.30" departLane="140483224#1_1" departPos="5.10" departPosLat="0.00" departSpeed="26.79" departDelay="0.00" arrival="169.00" arrivalLane="-793339796#2_2" arrivalPos="82.50" arrivalPosLat="0.00" arrivalSpeed="26.69" duration="76.70" routeLength="1648.38" waitingTime="0.00" waitingCount="0" stopTime="0.00" timeLoss="12.73" rerouteNo="1" devices="tripinfo_D1_1.2 routing_D1_1.2" vType="car" speedFactor="0.96" vaporized=""/>
    <tripinfo id="D2_1.0" depart="93.70" departLane="140483224#1_2" departPos="7.20" departPosLat="0.00" departSpeed="28.45" departDelay="0.00" arrival="182.50" arrivalLane="-145894807#0_1" arrivalPos="260.95" arrivalPosLat="-0.00" arrivalSpeed="8.52" duration="88.80" routeLength="1090.66" waitingTime="0.00" waitingCount="0" stopTime="0.00" timeLoss="5.51" rerouteNo="1" devices="tripinfo_D2_1.0 routing_D2_1.0" vType="truck" speedFactor="1.02" vaporized=""/>
    <tripinfo id="B2_1.0" depart="62.00" departLane="-361257727#0_1" departPos="5.10" departPosLat="0.00" departSpeed="7.79" departDelay="0.00" arrival="192.50" arrivalLane="-440471861#0_1" arrivalPos="31.52" arrivalPosLat="-0.00" arrivalSpeed="25.89" duration="130.50" routeLength="1397.68" waitingTime="0.00" waitingCount="0" stopTime="0.00" timeLoss="5.33" rerouteNo="1" devices="tripinfo_B2_1.0 routing_B2_1.0" vType="car" speedFactor="0.93" vaporized=""/>
    <personinfo id="pf_2.4" depart="180.00" type="ped" speedFactor="1.15" duration="21.50" waitingTime="0.00" timeLoss="2.23" traveltime="21.50">
        <walk depart="180.00" departPos="15.09" arrival="201.50" arrivalPos="3.44" duration="21.50" routeLength="30.72" timeLoss="2.23" maxSpeed="1.59" waitingTime="0.00"/>
    </personinfo>
    <tripinfo id="D1_1.3" depart="117.10" departLane="140483224#1_1" departPos="7.20" departPosLat="0.00" departSpeed="25.89" departDelay="0.00" arrival="209.50" arrivalLane="-793339796#2_2" arrivalPos="82.50" arrivalPosLat="0.00" arrivalSpeed="25.43" duration="92.40" routeLength="1646.28" waitingTime="0.00" waitingCount="0" stopTime="0.00" timeLoss="26.40" rerouteNo="1" devices="tripinfo_D1_1.3 routing_D1_1.3" vType="truck" speedFactor="0.93" vaporized=""/>
    <tripinfo id="C3_1.1" depart="87.10" departLane="440471861#0_1" departPos="12.10" departPosLat="0.00" departSpeed="27.78" departDelay="0.00" arrival="211.00" arrivalLane="-140483224#1_2" arrivalPos="64.04" arrivalPosLat="0.00" arrivalSpeed="27.72" duration="123.90" routeLength="1045.78" waitingTime="67.30" waitingCount="1" stopTime="0.00" timeLoss="84.86" rerouteNo="1" devices="tripinfo_C3_1.1 routing_C3_1.1" vType="bus" speedFactor="1.00" vaporized=""/>
    <tripinfo id="C3_1.2" depart="156.50" departLane="440471861#0_1" departPos="8.10" departPosLat="0.00" departSpeed="27.78" departDelay="0.00" arrival="212.50" arrivalLane="-140483224#1_2" arrivalPos="64.04" arrivalPosLat="0.00" arrivalSpeed="27.72" duration="56.00" routeLength="1049.78" waitingTime="0.00" waitingCount="0" stopTime="0.00" timeLoss="16.75" rerouteNo="1" devices="tripinfo_C3_1.2 routing_C3_1.2" vType="jeep" speedFactor="1.00" vaporized=""/>
    <tripinfo id="C1_1.3" depart="142.00" departLane="440471861#0_1" departPos="8.10" departPosLat="0.00" departSpeed="27.78" departDelay="0.00" arrival="220.40" arrivalLane="-793339796#2_2" arrivalPos="82.50" arrivalPosLat="0.00" arrivalSpeed="24.15" duration="78.40" routeLength="1650.99" waitingTime="0.00" waitingCount="0" stopTime="0.00" timeLoss="17.91" rerouteNo="1" devices="tripinfo_C1_1.3 routing_C1_1.3" vType="jeep" speedFactor="1.00" vaporized=""/>
    <personinfo id="pf_4.2" depart="90.00" type="ped" speedFactor="0.97" duration="130.60" waitingTime="8.10" timeLoss="20.48" traveltime="130.60">
        <walk depart="90.00" departPos="25.00" arrival="157.90" arrivalPos="29.11" duration="67.90" routeLength="72.15" timeLoss="14.34" maxSpeed="1.35" waitingTime="8.10"/>
        <walk depart="157.90" departPos="29.11" arrival="220.60" arrivalPos="29.05" duration="62.70" routeLength="76.20" timeLoss="6.13" maxSpeed="1.35" waitingTime="0.00"/>
    </personinfo>
    <tripinfo id="B1_1.0" depart="75.60" departLane="-361257727#0_1" departPos="5.10" departPosLat="0.00" departSpeed="8.25" departDelay="0.00" arrival="226.60" arrivalLane="-793339796#2_2" arrivalPos="82.50" arrivalPosLat="0.00" arrivalSpeed="27.42" duration="151.00" routeLength="1915.44" waitingTime="0.00" waitingCount="0" stopTime="0.00" timeLoss="15.07" rerouteNo="1" devices="tripinfo_B1_1.0 routing_B1_1.0" vType="car" speedFactor="0.99" vaporized=""/>
    <personinfo id="pf_1.0" depart="0.00" type="ped" speedFactor="1.06" duration="235.70" waitingTime="0.00" timeLoss="24.00" traveltime="235.70">
        <walk depart="0.00" departPos="25.00" arrival="235.70" arrivalPos="3.44" duration="235.70" routeLength="311.67" timeLoss="24.00" maxSpeed="1.47" waitingTime="0.00"/>
    </personinfo>
    <personinfo id="pf_2.5" depart="225.00" type="ped" speedFactor="0.98" duration="28.30" waitingTime="3.00" timeLoss="5.63" traveltime="28.30">
        <walk depart="225.00" departPos="15.09" arrival="253.30" arrivalPos="3.44" duration="28.30" routeLength="30.72" timeLoss="5.63" maxSpeed="1.36" waitingTime="3.00"/>
    </personinfo>
    <personinfo id="pf_4.3" depart="135.00" type="ped" speedFactor="0.99" duration="119.90" waitingTime="0.00" timeLoss="11.98" traveltime="119.90">
        <walk depart="135.00" departPos="25.00" arrival="193.40" arrivalPos="29.11" duration="58.40" routeLength="72.15" timeLoss="5.91" maxSpeed="1.37" waitingTime="0.00"/>
        <walk depart="193.40" departPos="29.11" arrival="254.90" arrivalPos="29.05" duration="61.50" routeLength="76.20" timeLoss="6.07" maxSpeed="1.37" waitingTime="0.00"/>
    </personinfo>
    <tripinfo id="A1_1.0" depart="157.90" departLane="-793339796#2_1" departPos="2.30" departPosLat="0.00" departSpeed="26.36" departDelay="0.00" arrival="255.10" arrivalLane="-145894807#0_1" arrivalPos="260.95" arrivalPosLat="0.00" arrivalSpeed="7.75" duration="97.20" routeLength="1059.52" waitingTime="0.00" waitingCount="0" stopTime="0.00" timeLoss="2.76" rerouteNo="1" devices="tripinfo_A1_1.0 routing_A1_1.0" vType="motorcycle" speedFactor="0.95" vaporized=""/>
    <tripinfo id="D3_1.1" depart="201.70" departLane="140483224#1_2" departPos="5.10" departPosLat="0.00" departSpeed="22.64" departDelay="0.00" arrival="255.20" arrivalLane="-440471861#0_2" arrivalPos="31.52" arrivalPosLat="0.00" arrivalSpeed="22.52" duration="53.50" routeLength="1067.97" waitingTime="0.00" waitingCount="0" stopTime="0.00" timeLoss="4.38" rerouteNo="1" devices="tripinfo_D3_1.1 routing_D3_1.1" vType="car" speedFactor="0.82" vaporized=""/>
    <tripinfo id="D3_1.2" depart="206.80" departLane="140483224#1_2" departPos="5.10" departPosLat="0.00" departSpeed="29.15" departDelay="0.00" arrival="256.50" arrivalLane="-440471861#0_2" arrivalPos="31.52" arrivalPosLat="0.00" arrivalSpeed="25.14" duration="49.70" routeLength="1067.97" waitingTime="0.00" waitingCount="0" stopTime="0.00" timeLoss="11.55" rerouteNo="1" devices="tripinfo_D3_1.2 routing_D3_1.2" vType="car" speedFactor="1.05" vaporized=""/>
    <tripinfo id="B2_1.1" depart="129.20" departLane="-361257727#0_1" departPos="8.10" departPosLat="0.00" departSpeed="8.33" departDelay="0.00" arrival="258.10" arrivalLane="-440471861#0_1" arrivalPos="31.52" arrivalPosLat="0.00" arrivalSpeed="25.54" duration="128.90" routeLength="1394.68" waitingTime="0.00" waitingCount="0" stopTime="0.00" timeLoss="12.30" rerouteNo="1" devices="tripinfo_B2_1.1 routing_B2_1.1" vType="jeep" speedFactor="1.00" vaporized=""/>
    <tripinfo id="D3_1.3" depart="212.70" departLane="140483224#1_2" departPos="8.10" departPosLat="0.00" departSpeed="27.78" departDelay="0.00" arrival="260.70" arrivalLane="-440471861#0_2" arrivalPos="31.52" arrivalPosLat="0.00" arrivalSpeed="27.73" duration="48.00" routeLength="1064.97" waitingTime="0.00" waitingCount="0" stopTime="0.00" timeLoss="8.06" rerouteNo="1" devices="tripinfo_D3_1.3 routing_D3_1.3" vType="jeep" speedFactor="1.00" vaporized=""/>
    <tripinfo id="A2_1.3" depart="137.50" departLane="-793339796#2_1" departPos="5.10" departPosLat="0.00" departSpeed="23.73" departDelay="7.60" arrival="265.00" arrivalLane="-440471861#0_2" arrivalPos="31.52" arrivalPosLat="0.00" arrivalSpeed="26.09" duration="127.50" routeLength="1081.27" waitingTime="71.00" waitingCount="1" stopTime="0.00" timeLoss="86.10" rerouteNo="1" devices="tripinfo_A2_1.3 routing_A2_1.3" vType="car" speedFactor="0.94" vaporized=""/>
    <tripinfo id="A3_1.0" depart="137.20" departLane="-793339796#2_2" departPos="5.10" departPosLat="0.00" departSpeed="26.39" departDelay="10.10" arrival="267.90" arrivalLane="-140483224#1_2" arrivalPos="64.04" arrivalPosLat="0.00" arrivalSpeed="26.32" duration="130.70" routeLength="1080.94" waitingTime="76.10" waitingCount="1" stopTime="0.00" timeLoss="88.09" rerouteNo="1" devices="tripinfo_A3_1.0 routing_A3_1.0" vType="car" speedFactor="0.95" vaporized=""/>
    <tripinfo id="A2_1.2" depart="137.20" departLane="-793339796#2_1" departPos="8.10" departPosLat="0.00" departSpeed="27.78" departDelay="11.40" arrival="271.50" arrivalLane="-440471861#0_1" arrivalPos="31.52" arrivalPosLat="0.00" arrivalSpeed="27.73" duration="134.30" routeLength="1078.27" waitingTime="76.70" waitingCount="1" stopTime="0.00" timeLoss="95.45" rerouteNo="1" devices="tripinfo_A2_1.2 routing_A2_1.2" vType="jeep" speedFactor="1.00" vaporized=""/>
    <tripinfo id="D2_1.1" depart="134.80" departLane="140483224#1_1" departPos="8.10" departPosLat="0.00" departSpeed="27.78" departDelay="0.00" arrival="274.50" arrivalLane="-145894807#0_1" arrivalPos="260.95" arrivalPosLat="0.00" arrivalSpeed="8.33" duration="139.70" routeLength="1089.76" waitingTime="44.10" waitingCount="1" stopTime="0.00" timeLoss="54.53" rerouteNo="1" devices="tripinfo_D2_1.1 routing_D2_1.1" vType="jeep" speedFactor="1.00" vaporized=""/>
    <tripinfo id="D2_1.2" depart="185.20" departLane="140483224#1_1" departPos="5.10" departPosLat="0.00" departSpeed="28.21" departDelay="0.00" arrival="276.80" arrivalLane="-145894807#0_1" arrivalPos="260.95" arrivalPosLat="0.00" arrivalSpeed="8.35" duration="91.60" routeLength="1092.76" waitingTime="0.00" waitingCount="0" stopTime="0.00" timeLoss="7.57" rerouteNo="1" devices="tripinfo_D2_1.2 routing_D2_1.2" vType="car" speedFactor="1.02" vaporized=""/>
    <tripinfo id="B2_1.2" depart="150.30" departLane="-361257727#0_1" departPos="2.30" departPosLat="0.00" departSpeed="7.32" departDelay="0.00" arrival="289.30" arrivalLane="-440471861#0_1" arrivalPos="31.52" arrivalPosLat="-0.00" arrivalSpeed="24.34" duration="139.00" routeLength="1400.48" waitingTime="0.00" waitingCount="0" stopTime="0.00" timeLoss="5.42" rerouteNo="1" devices="tripinfo_B2_1.2 routing_B2_1.2" vType="tricycle" speedFactor="0.88" vaporized=""/>
    <tripinfo id="C1_1.4" depart="227.40" departLane="440471861#0_1" departPos="2.30" departPosLat="0.00" departSpeed="29.51" departDelay="0.00" arrival="292.60" arrivalLane="-793339796#2_2" arrivalPos="82.50" arrivalPosLat="0.00" arrivalSpeed="29.49" duration="65.20" routeLength="1656.79" waitingTime="0.00" waitingCount="0" stopTime="0.00" timeLoss="8.04" rerouteNo="1" devices="tripinfo_C1_1.4 routing_C1_1.4" vType="motorcycle" speedFactor="1.06" vaporized=""/>
    <personinfo id="pf_2.6" depart="270.00" type="ped" speedFactor="1.00" duration="28.00" waitingTime="3.30" timeLoss="5.92" traveltime="28.00">
        <walk depart="270.00" departPos="15.09" arrival="298.00" arrivalPos="3.44" duration="28.00" routeLength="30.72" timeLoss="5.92" maxSpeed="1.39" waitingTime="3.30"/>
    </personinfo>
    <personinfo id="pf_4.4" depart="180.00" type="ped" speedFactor="1.02" duration="120.40" waitingTime="4.70" timeLoss="16.09" traveltime="120.40">
        <walk depart="180.00" departPos="25.00" arrival="236.20" arrivalPos="29.11" duration="56.20" routeLength="72.15" timeLoss="5.47" maxSpeed="1.42" waitingTime="0.00"/>
        <walk depart="236.20" departPos="29.11" arrival="300.40" arrivalPos="29.05" duration="64.20" routeLength="76.20" timeLoss="10.62" maxSpeed="1.42" waitingTime="4.70"/>
    </personinfo>
    <tripinfo id="C3_1.3" depart="208.00" departLane="440471861#0_1" departPos="2.30" departPosLat="0.00" departSpeed="26.97" departDelay="0.00" arrival="300.60" arrivalLane="-140483224#1_2" arrivalPos="64.04" arrivalPosLat="0.00" arrivalSpeed="26.94" duration="92.60" routeLength="1055.58" waitingTime="43.30" waitingCount="1" stopTime="0.00" timeLoss="52.09" rerouteNo="1" devices="tripinfo_C3_1.3 routing_C3_1.3" vType="tricycle" speedFactor="0.97" vaporized=""/>
    <personinfo id="pf_1.1" depart="45.00" type="ped" speedFactor="0.94" duration="265.30" waitingTime="0.00" timeLoss="26.14" traveltime="265.30">
        <walk depart="45.00" departPos="25.00" arrival="310.30" arrivalPos="3.44" duration="265.30" routeLength="311.67" timeLoss="26.14" maxSpeed="1.30" waitingTime="0.00"/>
    </personinfo>
    <personinfo id="pf_1.2" depart="90.00" type="ped" speedFactor="1.01" duration="246.50" waitingTime="0.00" timeLoss="24.40" traveltime="246.50">
        <walk depart="90.00" departPos="25.00" arrival="336.50" arrivalPos="3.44" duration="246.50" routeLength="311.67" timeLoss="24.40" maxSpeed="1.40" waitingTime="0.00"/>
    </personinfo>
    <personinfo id="pf_2.7" depart="315.00" type="ped" speedFactor="1.04" duration="23.60" waitingTime="0.00" timeLoss="2.39" traveltime="23.60">
        <walk depart="315.00" departPos="15.09" arrival="338.60" arrivalPos="3.44" duration="23.60" routeLength="30.72" timeLoss="2.39" maxSpeed="1.45" waitingTime="0.00"/>
    </personinfo>
    <personinfo id="pf_4.5" depart="225.00" type="ped" speedFactor="1.01" duration="117.20" waitingTime="0.00" timeLoss="11.52" traveltime="117.20">
        <walk depart="225.00" departPos="25.00" arrival="282.10" arrivalPos="29.11" duration="57.10" routeLength="72.15" timeLoss="5.70" maxSpeed="1.40" waitingTime="0.00"/>
        <walk depart="282.10" departPos="29.11" arrival="342.20" arrivalPos="29.05" duration="60.10" routeLength="76.20" timeLoss="5.82" maxSpeed="1.40" waitingTime="0.00"/>
    </personinfo>
    <tripinfo id="A1_1.1" depart="257.00" departLane="-793339796#2_1" departPos="8.10" departPosLat="0.00" departSpeed="27.78" departDelay="5.70" arrival="350.90" arrivalLane="-145894807#0_1" arrivalPos="260.95" arrivalPosLat="0.00" arrivalSpeed="8.30" duration="93.90" routeLength="1053.72" waitingTime="0.00" waitingCount="0" stopTime="0.00" timeLoss="4.45" rerouteNo="1" devices="tripinfo_A1_1.1 routing_A1_1.1" vType="jeep" speedFactor="1.00" vaporized=""/>
    <tripinfo id="A3_1.1" depart="193.40" departLane="-793339796#2_1" departPos="2.30" departPosLat="0.00" departSpeed="28.47" departDelay="0.00" arrival="365.80" arrivalLane="-140483224#1_2" arrivalPos="64.04" arrivalPosLat="0.00" arrivalSpeed="28.46" duration="172.40" routeLength="1083.74" waitingTime="114.60" waitingCount="2" stopTime="0.00" timeLoss="132.79" rerouteNo="1" devices="tripinfo_A3_1.1 routing_A3_1.1" vType="tricycle" speedFactor="1.02" vaporized=""/>
    <tripinfo id="A2_1.4" depart="317.30" departLane="-793339796#2_2" departPos="5.10" departPosLat="0.00" departSpeed="28.18" departDelay="4.40" arrival="366.20" arrivalLane="-440471861#0_1" arrivalPos="31.52" arrivalPosLat="-0.00" arrivalSpeed="28.14" duration="48.90" routeLength="1081.27" waitingTime="0.00" waitingCount="0" stopTime="0.00" timeLoss="10.49" rerouteNo="1" devices="tripinfo_A2_1.4 routing_A2_1.4" vType="car" speedFactor="1.01" vaporized=""/>
    <tripinfo id="D1_1.4" depart="236.00" departLane="140483224#1_1" departPos="7.20" departPosLat="0.00" departSpeed="26.48" departDelay="0.00" arrival="366.90" arrivalLane="-793339796#2_2" arrivalPos="82.50" arrivalPosLat="0.00" arrivalSpeed="25.43" duration="130.90" routeLength="1646.28" waitingTime="33.90" waitingCount="1" stopTime="0.00" timeLoss="66.23" rerouteNo="1" devices="tripinfo_D1_1.4 routing_D1_1.4" vType="truck" speedFactor="0.95" vaporized=""/>
    <tripinfo id="A3_1.2" depart="214.60" departLane="-793339796#2_2" departPos="5.10" departPosLat="0.00" departSpeed="27.11" departDelay="0.00" arrival="368.60" arrivalLane="-140483224#1_2" arrivalPos="64.04" arrivalPosLat="0.00" arrivalSpeed="27.07" duration="154.00" routeLength="1080.94" waitingTime="91.20" waitingCount="1" stopTime="0.00" timeLoss="112.52" rerouteNo="1" devices="tripinfo_A3_1.2 routing_A3_1.2" vType="car" speedFactor="0.98" vaporized=""/>
    <tripinfo id="D2_1.3" depart="223.20" departLane="140483224#1_1" departPos="2.30" departPosLat="0.00" departSpeed="26.42" departDelay="0.00" arrival="369.80" arrivalLane="-145894807#0_1" arrivalPos="260.95" arrivalPosLat="0.00" arrivalSpeed="7.77" duration="146.60" routeLength="1095.56" waitingTime="52.20" waitingCount="1" stopTime="0.00" timeLoss="56.77" rerouteNo="1" devices="tripinfo_D2_1.3 routing_D2_1.3" vType="motorcycle" speedFactor="0.95" vaporized=""/>
    <personinfo id="pf_1.3" depart="135.00" type="ped" speedFactor="1.08" duration="237.10" waitingTime="7.10" timeLoss="29.84" traveltime="237.10">
        <walk depart="135.00" departPos="25.00" arrival="372.10" arrivalPos="3.44" duration="237.10" routeLength="311.67" timeLoss="29.84" maxSpeed="1.50" waitingTime="7.10"/>
    </personinfo>
    <tripinfo id="A3_1.4" depart="229.60" departLane="-793339796#2_2" departPos="8.10" departPosLat="0.00" departSpeed="27.78" departDelay="2.00" arrival="373.30" arrivalLane="-140483224#1_2" arrivalPos="64.04" arrivalPosLat="0.00" arrivalSpeed="27.73" duration="143.70" routeLength="1077.94" waitingTime="82.00" waitingCount="1" stopTime="0.00" timeLoss="103.41" rerouteNo="1" devices="tripinfo_A3_1.4 routing_A3_1.4" vType="jeep" speedFactor="1.00" vaporized=""/>
    <tripinfo id="A3_1.3" depart="222.10" departLane="-793339796#2_1" departPos="2.30" departPosLat="0.00" departSpeed="24.80" departDelay="0.00" arrival="375.40" arrivalLane="-140483224#1_2" arrivalPos="64.04" arrivalPosLat="-1.24" arrivalSpeed="24.58" duration="153.30" routeLength="1083.74" waitingTime="88.00" waitingCount="2" stopTime="0.00" timeLoss="107.89" rerouteNo="1" devices="tripinfo_A3_1.3 routing_A3_1.3" vType="motorcycle" speedFactor="0.89" vaporized=""/>
    <tripinfo id="A3_1.5" depart="257.00" departLane="-793339796#2_2" departPos="5.10" departPosLat="0.00" departSpeed="23.93" departDelay="1.60" arrival="375.70" arrivalLane="-140483224#1_2" arrivalPos="64.04" arrivalPosLat="0.64" arrivalSpeed="23.88" duration="118.70" routeLength="1080.94" waitingTime="54.30" waitingCount="3" stopTime="0.00" timeLoss="71.81" rerouteNo="1" devices="tripinfo_A3_1.5 routing_A3_1.5" vType="car" speedFactor="0.86" vaporized=""/>
    <tripinfo id="D1_1.5" depart="315.20" departLane="140483224#1_1" departPos="5.10" departPosLat="0.00" departSpeed="31.67" departDelay="0.00" arrival="384.50" arrivalLane="-793339796#2_2" arrivalPos="82.50" arrivalPosLat="0.00" arrivalSpeed="31.61" duration="69.30" routeLength="1648.38" waitingTime="0.00" waitingCount="0" stopTime="0.00" timeLoss="15.16" rerouteNo="1" devices="tripinfo_D1_1.5 routing_D1_1.5" vType="car" speedFactor="1.14" vaporized=""/>
    <personinfo id="pf_2.8" depart="360.00" type="ped" speedFactor="1.01" duration="27.60" waitingTime="3.10" timeLoss="5.64" traveltime="27.60">
        <walk depart="360.00" departPos="15.09" arrival="387.60" arrivalPos="3.44" duration="27.60" routeLength="30.72" timeLoss="5.64" maxSpeed="1.40" waitingTime="3.10"/>
    </personinfo>
    <personinfo id="pf_4.6" depart="270.00" type="ped" speedFactor="0.97" duration="121.80" waitingTime="0.00" timeLoss="11.98" traveltime="121.80">
        <walk depart="270.00" departPos="25.00" arrival="329.20" arrivalPos="29.11" duration="59.20" routeLength="72.15" timeLoss="5.79" maxSpeed="1.35" waitingTime="0.00"/>
        <walk depart="329.20" departPos="29.11" arrival="391.80" arrivalPos="29.05" duration="62.60" routeLength="76.20" timeLoss="6.19" maxSpeed="1.35" waitingTime="0.00"/>
    </personinfo>
    <personinfo id="pf_3.1" depart="45.00" type="ped" speedFactor="1.08" duration="347.60" waitingTime="0.00" timeLoss="34.19" traveltime="347.60">
        <walk depart="45.00" departPos="25.00" arrival="143.20" arrivalPos="19.11" duration="98.20" routeLength="132.56" timeLoss="9.64" maxSpeed="1.50" waitingTime="0.00"/>
        <walk depart="143.20" departPos="19.11" arrival="392.60" arrivalPos="22.72" duration="249.40" routeLength="336.55" timeLoss="24.55" maxSpeed="1.50" waitingTime="0.00"/>
    </personinfo>
    <tripinfo id="A1_1.2" depart="317.30" departLane="-793339796#2_1" departPos="7.20" departPosLat="0.00" departSpeed="29.37" departDelay="8.10" arrival="406.50" arrivalLane="-145894807#0_1" arrivalPos="260.95" arrivalPosLat="0.00" arrivalSpeed="8.75" duration="89.20" routeLength="1054.62" waitingTime="0.00" waitingCount="0" stopTime="0.00" timeLoss="4.60" rerouteNo="1" devices="tripinfo_A1_1.2 routing_A1_1.2" vType="truck" speedFactor="1.06" vaporized=""/>
    <tripinfo id="C3_1.4" depart="303.70" departLane="440471861#0_1" departPos="5.10" departPosLat="0.00" departSpeed="26.86" departDelay="0.00" arrival="408.40" arrivalLane="-140483224#1_2" arrivalPos="64.04" arrivalPosLat="0.00" arrivalSpeed="26.79" duration="104.70" routeLength="1052.78" waitingTime="42.50" waitingCount="2" stopTime="0.00" timeLoss="64.10" rerouteNo="1" devices="tripinfo_C3_1.4 routing_C3_1.4" vType="car" speedFactor="0.97" vaporized=""/>