<?xml version="1.0" encoding="UTF-8"?>

<!-- generated on 2026-02-17 00:36:41 by Eclipse SUMO sumo Version 1.24.0
<sumoConfiguration xmlns:xsi="http://www.w3.org/2001/XMLSchema-instance" xsi:noNamespaceSchemaLocation="http://sumo.dlr.de/xsd/sumoConfiguration.xsd">

    <input>
        <net-file value="Olivarez_traci\network/baseline.net.xml"/>
        <route-files value="Olivarez_traci\demand\flows_slow_traffic.rou.xml"/>
        <additional-files value="Olivarez_traci\additionals/map.poly.xml,Olivarez_traci\ additionals/detectors.add.xml"/>
    </input>

    <output>
        <tripinfo-output value="Olivarez_traci\output_A2C_Baseline\SP_A2C_Baseline_Slow_trips.xml"/>
        <statistic-output value="Olivarez_traci\output_A2C_Baseline\SP_A2C_Baseline_Slow_stats.xml"/>
    </output>

    <time>
        <begin value="0"/>
        <end value="10800"/>
        <step-length value="0.1"/>
    </time>

    <processing>
        <lateral-resolution value="0.1"/>
        <collision.action value="none"/>
        <collision.check-junctions value="false"/>
        <collision.mingap-factor value="0"/>
    </processing>

    <report>
        <no-warnings value="true"/>
    </report>

    <traci_server>
        <remote-port value="61961"/>
    </traci_server>

    <gui_only>
        <delay value="0"/>
    </gui_only>

</sumoConfiguration>
-->

<tripinfos xmlns:xsi="http://www.w3.org/2001/XMLSchema-instance" xsi:noNamespaceSchemaLocation="http://sumo.dlr.de/xsd/tripinfo_file.xsd">
    <personinfo id="pf_2.0" depart="0.00" type="ped" speedFactor="0.88" duration="28.10" waitingTime="0.00" timeLoss="2.92" traveltime="28.10">
        <walk depart="0.00" departPos="15.09" arrival="28.10" arrivalPos="3.44" duration="28.10" routeLength="30.72" timeLoss="2.92" maxSpeed="1.22" waitingTime="0.00"/>
    </personinfo>
    <personinfo id="pf_2.1" depart="22.50" type="ped" speedFactor="1.08" duration="28.90" waitingTime="6.10" timeLoss="8.37" traveltime="28.90">
        <walk depart="22.50" departPos="15.09" arrival="51.40" arrivalPos="3.44" duration="28.90" routeLength="30.72" timeLoss="8.37" maxSpeed="1.50" waitingTime="6.10"/>
    </personinfo>
    <tripinfo id="D3_1.0" depart="15.30" departLane="140483224#1_2" departPos="5.10" departPosLat="0.00" departSpeed="28.45" departDelay="0.00" arrival="59.30" arrivalLane="-440471861#0_2" arrivalPos="31.52" arrivalPosLat="0.00" arrivalSpeed="28.37" duration="44.00" routeLength="1067.97" waitingTime="0.00" waitingCount="0" stopTime="0.00" timeLoss="4.89" rerouteNo="1" devices="tripinfo_D3_1.0 routing_D3_1.0" vType="car" speedFactor="1.02" vaporized=""/>
    <personinfo id="pf_2.2" depart="45.00" type="ped" speedFactor="0.99" duration="24.60" waitingTime="0.00" timeLoss="2.32" traveltime="24.60">
        <walk depart="45.00" departPos="15.09" arrival="69.60" arrivalPos="3.44" duration="24.60" routeLength="30.72" timeLoss="2.32" maxSpeed="1.38" waitingTime="0.00"/>
    </personinfo>
    <tripinfo id="D1_1.0" depart="1.20" departLane="140483224#1_1" departPos="5.10" departPosLat="0.00" departSpeed="27.86" departDelay="0.00" arrival="75.80" arrivalLane="-793339796#2_2" arrivalPos="82.50" arrivalPosLat="0.00" arrivalSpeed="27.82" duration="74.60" routeLength="1648.38" waitingTime="0.00" waitingCount="0" stopTime="0.00" timeLoss="13.12" rerouteNo="1" devices="tripinfo_D1_1.0 routing_D1_1.0" vType="car" speedFactor="1.00" vaporized=""/>
    <tripinfo id="A2_1.0" depart="8.90" departLane="-793339796#2_1" departPos="5.10" departPosLat="0.00" departSpeed="29.35" departDelay="0.00" arrival="76.10" arrivalLane="-440471861#0_1" arrivalPos="31.52" arrivalPosLat="0.00" arrivalSpeed="29.23" duration="67.20" routeLength="1081.27" waitingTime="19.80" waitingCount="1" stopTime="0.00" timeLoss="30.29" rerouteNo="1" devices="tripinfo_A2_1.0 routing_A2_1.0" vType="car" speedFactor="1.06" vaporized=""/>
    <tripinfo id="A2_1.2" depart="41.40" departLane="-793339796#2_1" departPos="5.10" departPosLat="0.00" departSpeed="28.78" departDelay="0.00" arrival="79.10" arrivalLane="-440471861#0_1" arrivalPos="31.52" arrivalPosLat="0.00" arrivalSpeed="28.68" duration="37.70" routeLength="1081.27" waitingTime="0.00" waitingCount="0" stopTime="0.00" timeLoss="0.10" rerouteNo="1" devices="tripinfo_A2_1.2 routing_A2_1.2" vType="car" speedFactor="1.04" vaporized=""/>
    <tripinfo id="A3_1.0" depart="31.50" departLane="-793339796#2_2" departPos="5.10" departPosLat="0.00" departSpeed="27.03" departDelay="0.50" arrival="81.10" arrivalLane="-140483224#1_2" arrivalPos="64.04" arrivalPosLat="0.00" arrivalSpeed="26.91" duration="49.60" routeLength="1080.94" waitingTime="0.00" waitingCount="0" stopTime="0.00" timeLoss="8.08" rerouteNo="1" devices="tripinfo_A3_1.0 routing_A3_1.0" vType="car" speedFactor="0.97" vaporized=""/>
    <tripinfo id="A2_1.1" depart="16.40" departLane="-793339796#2_1" departPos="8.10" departPosLat="0.00" departSpeed="27.78" departDelay="0.00" arrival="84.90" arrivalLane="-440471861#0_2" arrivalPos="31.52" arrivalPosLat="0.00" arrivalSpeed="27.78" duration="68.50" routeLength="1078.27" waitingTime="10.50" waitingCount="1" stopTime="0.00" timeLoss="29.61" rerouteNo="1" devices="tripinfo_A2_1.1 routing_A2_1.1" vType="jeep" speedFactor="1.00" vaporized=""/>
    <personinfo id="pf_2.3" depart="67.50" type="ped" speedFactor="1.13" duration="32.30" waitingTime="10.70" timeLoss="12.67" traveltime="32.30">
        <walk depart="67.50" departPos="15.09" arrival="99.80" arrivalPos="3.44" duration="32.30" routeLength="30.72" timeLoss="12.67" maxSpeed="1.57" waitingTime="10.70"/>
    </personinfo>
    <personinfo id="pf_2.4" depart="90.00" type="ped" speedFactor="1.05" duration="23.50" waitingTime="0.00" timeLoss="2.47" traveltime="23.50">
        <walk depart="90.00" departPos="15.09" arrival="113.50" arrivalPos="3.44" duration="23.50" routeLength="30.72" timeLoss="2.47" maxSpeed="1.46" waitingTime="0.00"/>
    </personinfo>
    <personinfo id="pf_4.0" depart="0.00" type="ped" speedFactor="1.03" duration="114.90" waitingTime="0.00" timeLoss="11.04" traveltime="114.90">
        <walk depart="0.00" departPos="25.00" arrival="55.90" arrivalPos="29.11" duration="55.90" routeLength="72.15" timeLoss="5.39" maxSpeed="1.43" waitingTime="0.00"/>
        <walk depart="55.90" departPos="29.11" arrival="114.90" arrivalPos="29.05" duration="59.00" routeLength="76.20" timeLoss="5.65" maxSpeed="1.43" waitingTime="0.00"/>
    </personinfo>
    <tripinfo id="C3_1.0" depart="8.60" departLane="440471861#0_1" departPos="5.10" departPosLat="0.00" departSpeed="28.99" departDelay="0.00" arrival="128.10" arrivalLane="-140483224#1_2" arrivalPos="64.04" arrivalPosLat="0.00" arrivalSpeed="28.95" duration="119.50" routeLength="1052.78" waitingTime="66.50" waitingCount="2" stopTime="0.00" timeLoss="81.83" rerouteNo="1" devices="tripinfo_C3_1.0 routing_C3_1.0" vType="car" speedFactor="1.04" vaporized=""/>
    <tripinfo id="C3_1.1" depart="22.80" departLane="440471861#0_1" departPos="2.30" departPosLat="0.00" departSpeed="25.10" departDelay="0.00" arrival="128.90" arrivalLane="-140483224#1_1" arrivalPos="64.04" arrivalPosLat="0.00" arrivalSpeed="24.98" duration="106.10" routeLength="1055.58" waitingTime="49.50" waitingCount="2" stopTime="0.00" timeLoss="62.54" rerouteNo="1" devices="tripinfo_C3_1.1 routing_C3_1.1" vType="motorcycle" speedFactor="0.90" vaporized=""/>
    <tripinfo id="C3_1.2" depart="47.20" departLane="440471861#0_1" departPos="5.10" departPosLat="0.00" departSpeed="30.59" departDelay="0.00" arrival="130.40" arrivalLane="-140483224#1_1" arrivalPos="64.04" arrivalPosLat="1.30" arrivalSpeed="30.49" duration="83.20" routeLength="1052.78" waitingTime="19.20" waitingCount="2" stopTime="0.00" timeLoss="47.55" rerouteNo="1" devices="tripinfo_C3_1.2 routing_C3_1.2" vType="car" speedFactor="1.10" vaporized=""/>
    <tripinfo id="D1_1.1" depart="47.90" departLane="140483224#1_1" departPos="7.20" departPosLat="0.00" departSpeed="26.91" departDelay="0.00" arrival="133.30" arrivalLane="-793339796#2_2" arrivalPos="82.50" arrivalPosLat="0.00" arrivalSpeed="25.42" duration="85.40" routeLength="1646.28" waitingTime="0.00" waitingCount="0" stopTime="0.00" timeLoss="21.74" rerouteNo="1" devices="tripinfo_D1_1.1 routing_D1_1.1" vType="truck" speedFactor="0.97" vaporized=""/>
    <tripinfo id="C3_1.3" depart="87.10" departLane="440471861#0_1" departPos="7.20" departPosLat="0.00" departSpeed="29.74" departDelay="0.00" arrival="134.50" arrivalLane="-140483224#1_2" arrivalPos="64.04" arrivalPosLat="0.00" arrivalSpeed="29.69" duration="47.40" routeLength="1050.68" waitingTime="0.00" waitingCount="0" stopTime="0.00" timeLoss="10.77" rerouteNo="1" devices="tripinfo_C3_1.3 routing_C3_1.3" vType="truck" speedFactor="1.07" vaporized=""/>
    <tripinfo id="C1_1.0" depart="35.30" departLane="440471861#0_1" departPos="5.10" departPosLat="0.00" departSpeed="25.38" departDelay="0.00" arrival="135.10" arrivalLane="-793339796#2_2" arrivalPos="82.50" arrivalPosLat="0.00" arrivalSpeed="25.31" duration="99.80" routeLength="1653.99" waitingTime="12.20" waitingCount="1" stopTime="0.00" timeLoss="33.41" rerouteNo="1" devices="tripinfo_C1_1.0 routing_C1_1.0" vType="car" speedFactor="0.91" vaporized=""/>
    <personinfo id="pf_4.1" depart="22.50" type="ped" speedFactor="1.04" duration="115.00" waitingTime="1.10" timeLoss="12.67" traveltime="115.00">
        <walk depart="22.50" departPos="25.00" arrival="78.70" arrivalPos="29.11" duration="56.20" routeLength="72.15" timeLoss="6.43" maxSpeed="1.45" waitingTime="0.90"/>
        <walk depart="78.70" departPos="29.11" arrival="137.50" arrivalPos="29.05" duration="58.80" routeLength="76.20" timeLoss="6.24" maxSpeed="1.45" waitingTime="0.20"/>
    </personinfo>
    <personinfo id="pf_2.5" depart="112.50" type="ped" speedFactor="0.91" duration="26.60" waitingTime="0.00" timeLoss="2.41" traveltime="26.60">
        <walk depart="112.50" departPos="15.09" arrival="139.10" arrivalPos="3.44" duration="26.60" routeLength="30.72" timeLoss="2.41" maxSpeed="1.27" waitingTime="0.00"/>
    </personinfo>
    <tripinfo id="C2_1.0" depart="40.30" departLane="440471861#0_2" departPos="12.10" departPosLat="0.00" departSpeed="27.78" departDelay="0.00" arrival="139.10" arrivalLane="-145894807#0_1" arrivalPos="260.95" arrivalPosLat="0.00" arrivalSpeed="8.29" duration="98.80" routeLength="1075.06" waitingTime="3.30" waitingCount="1" stopTime="0.00" timeLoss="13.72" rerouteNo="1" devices="tripinfo_C2_1.0 routing_C2_1.0" vType="bus" speedFactor="1.00" vaporized=""/>
    <tripinfo id="C2_1.1" depart="54.60" departLane="440471861#0_2" departPos="5.10" departPosLat="0.00" departSpeed="34.31" departDelay="0.00" arrival="141.40" arrivalLane="-145894807#0_1" arrivalPos="260.95" arrivalPosLat="0.00" arrivalSpeed="10.21" duration="86.80" routeLength="1082.06" waitingTime="0.00" waitingCount="0" stopTime="0.00" timeLoss="17.73" rerouteNo="1" devices="tripinfo_C2_1.1 routing_C2_1.1" vType="car" speedFactor="1.24" vaporized=""/>
    <tripinfo id="B2_1.0" depart="13.90" departLane="-361257727#0_1" departPos="5.10" departPosLat="0.00" departSpeed="7.98" departDelay="0.00" arrival="141.60" arrivalLane="-440471861#0_1" arrivalPos="31.52" arrivalPosLat="-0.00" arrivalSpeed="26.53" duration="127.70" routeLength="1397.68" waitingTime="0.00" waitingCount="0" stopTime="0.00" timeLoss="5.58" rerouteNo="1" devices="tripinfo_B2_1.0 routing_B2_1.0" vType="car" speedFactor="0.96" vaporized=""/>
    <tripinfo id="C1_1.1" depart="57.10" departLane="440471861#0_1" departPos="8.10" departPosLat="0.00" departSpeed="27.78" departDelay="0.00" arrival="144.30" arrivalLane="-793339796#2_2" arrivalPos="82.50" arrivalPosLat="0.00" arrivalSpeed="24.57" duration="87.20" routeLength="1650.99" waitingTime="0.00" waitingCount="0" stopTime="0.00" timeLoss="26.57" rerouteNo="1" devices="tripinfo_C1_1.1 routing_C1_1.1" vType="jeep" speedFactor="1.00" vaporized=""/>
    <tripinfo id="C1_1.2" depart="63.70" departLane="440471861#0_1" departPos="2.30" departPosLat="0.00" departSpeed="25.73" departDelay="0.00" arrival="148.00" arrivalLane="-793339796#2_2" arrivalPos="82.50" arrivalPosLat="0.00" arrivalSpeed="25.70" duration="84.30" routeLength="1656.79" waitingTime="0.00" waitingCount="0" stopTime="0.00" timeLoss="18.71" rerouteNo="1" devices="tripinfo_C1_1.2 routing_C1_1.2" vType="tricycle" speedFactor="0.93" vaporized=""/>
    <personinfo id="pf_4.2" depart="45.00" type="ped" speedFactor="1.08" duration="112.60" waitingTime="2.60" timeLoss="13.71" traveltime="112.60">
        <walk depart="45.00" departPos="25.00" arrival="98.40" arrivalPos="29.11" duration="53.40" routeLength="72.15" timeLoss="5.31" maxSpeed="1.50" waitingTime="0.00"/>
        <walk depart="98.40" departPos="29.11" arrival="157.60" arrivalPos="29.05" duration="59.20" routeLength="76.20" timeLoss="8.41" maxSpeed="1.50" waitingTime="2.60"/>
    </personinfo>
    <tripinfo id="C1_1.3" depart="82.10" departLane="440471861#0_1" departPos="5.10" departPosLat="0.00" departSpeed="24.54" departDelay="0.00" arrival="159.20" arrivalLane="-793339796#2_2" arrivalPos="82.50" arrivalPosLat="0.00" arrivalSpeed="24.48" duration="77.10" routeLength="1653.99" waitingTime="0.00" waitingCount="0" stopTime="0.00" timeLoss="8.48" rerouteNo="1" devices="tripinfo_C1_1.3 routing_C1_1.3" vType="car" speedFactor="0.88" vaporized=""/>
    <personinfo id="pf_2.6" depart="135.00" type="ped" speedFactor="1.00" duration="25.90" waitingTime="1.30" timeLoss="3.88" traveltime="25.90">
        <walk depart="135.00" departPos="15.09" arrival="160.90" arrivalPos="3.44" duration="25.90" routeLength="30.72" timeLoss="3.88" maxSpeed="1.39" waitingTime="1.30"/>
    </personinfo>
    <tripinfo id="D1_1.3" depart="92.30" departLane="140483224#1_1" departPos="5.10" departPosLat="0.00" departSpeed="33.02" departDelay="0.00" arrival="180.70" arrivalLane="-793339796#2_2" arrivalPos="82.50" arrivalPosLat="0.00" arrivalSpeed="32.92" duration="88.40" routeLength="1648.38" waitingTime="9.20" waitingCount="1" stopTime="0.00" timeLoss="36.58" rerouteNo="1" devices="tripinfo_D1_1.3 routing_D1_1.3" vType="car" speedFactor="1.19" vaporized=""/>
    <personinfo id="pf_2.7" depart="157.50" type="ped" speedFactor="1.03" duration="25.10" waitingTime="0.90" timeLoss="3.62" traveltime="25.10">
        <walk depart="157.50" departPos="15.09" arrival="182.60" arrivalPos="3.44" duration="25.10" routeLength="30.72" timeLoss="3.62" maxSpeed="1.43" waitingTime="0.90"/>
    </personinfo>
    <tripinfo id="D2_1.0" depart="67.30" departLane="140483224#1_1" departPos="5.10" departPosLat="0.00" departSpeed="29.37" departDelay="0.00" arrival="187.70" arrivalLane="-145894807#0_1" arrivalPos="260.95" arrivalPosLat="0.00" arrivalSpeed="8.77" duration="120.40" routeLength="1092.76" waitingTime="32.00" waitingCount="1" stopTime="0.00" timeLoss="39.71" rerouteNo="1" devices="tripinfo_D2_1.0 routing_D2_1.0" vType="car" speedFactor="1.06" vaporized=""/>
    <tripinfo id="B2_1.1" depart="62.00" departLane="-361257727#0_1" departPos="8.10" departPosLat="0.00" departSpeed="8.33" departDelay="0.00" arrival="189.70" arrivalLane="-440471861#0_1" arrivalPos="31.52" arrivalPosLat="-0.00" arrivalSpeed="27.77" duration="127.70" routeLength="1394.68" waitingTime="0.00" waitingCount="0" stopTime="0.00" timeLoss="11.10" rerouteNo="1" devices="tripinfo_B2_1.1 routing_B2_1.1" vType="jeep" speedFactor="1.00" vaporized=""/>
    <tripinfo id="D1_1.2" depart="74.50" departLane="140483224#1_1" departPos="7.20" departPosLat="0.00" departSpeed="27.47" departDelay="0.00" arrival="196.10" arrivalLane="-793339796#2_2" arrivalPos="82.50" arrivalPosLat="0.00" arrivalSpeed="25.47" duration="121.60" routeLength="1646.28" waitingTime="23.80" waitingCount="1" stopTime="0.00" timeLoss="59.25" rerouteNo="1" devices="tripinfo_D1_1.2 routing_D1_1.2" vType="truck" speedFactor="0.99" vaporized=""/>
    <tripinfo id="A2_1.5" depart="142.90" departLane="-793339796#2_1" departPos="5.10" departPosLat="0.00" departSpeed="20.98" departDelay="13.00" arrival="199.10" arrivalLane="-440471861#0_2" arrivalPos="31.52" arrivalPosLat="0.00" arrivalSpeed="26.57" duration="56.20" routeLength="1081.27" waitingTime="0.00" waitingCount="0" stopTime="0.00" timeLoss="15.53" rerouteNo="1" devices="tripinfo_A2_1.5 routing_A2_1.5" vType="car" speedFactor="0.96" vaporized=""/>
    <tripinfo id="A2_1.3" depart="54.40" departLane="-793339796#2_1" departPos="7.20" departPosLat="0.00" departSpeed="25.39" departDelay="0.30" arrival="200.20" arrivalLane="-440471861#0_1" arrivalPos="31.52" arrivalPosLat="0.00" arrivalSpeed="25.34" duration="145.80" routeLength="1079.17" waitingTime="87.30" waitingCount="1" stopTime="0.00" timeLoss="103.24" rerouteNo="1" devices="tripinfo_A2_1.3 routing_A2_1.3" vType="truck" speedFactor="0.91" vaporized=""/>
    <tripinfo id="A3_1.1" depart="61.00" departLane="-793339796#2_1" departPos="12.10" departPosLat="0.00" departSpeed="27.78" departDelay="0.00" arrival="200.50" arrivalLane="-140483224#1_2" arrivalPos="64.04" arrivalPosLat="0.00" arrivalSpeed="27.76" duration="139.50" routeLength="1073.94" waitingTime="82.40" waitingCount="1" stopTime="0.00" timeLoss="99.33" rerouteNo="1" devices="tripinfo_A3_1.1 routing_A3_1.1" vType="bus" speedFactor="1.00" vaporized=""/>
    <personinfo id="pf_4.3" depart="67.50" type="ped" speedFactor="0.99" duration="133.30" waitingTime="13.80" timeLoss="25.73" traveltime="133.30">
        <walk depart="67.50" departPos="25.00" arrival="139.40" arrivalPos="29.11" duration="71.90" routeLength="72.15" timeLoss="19.58" maxSpeed="1.38" waitingTime="13.70"/>
        <walk depart="139.40" departPos="29.11" arrival="200.80" arrivalPos="29.05" duration="61.40" routeLength="76.20" timeLoss="6.14" maxSpeed="1.38" waitingTime="0.10"/>
    </personinfo>
    <tripinfo id="D1_1.4" depart="112.20" departLane="140483224#1_1" departPos="8.10" departPosLat="0.00" departSpeed="27.78" departDelay="0.00" arrival="200.80" arrivalLane="-793339796#2_2" arrivalPos="82.50" arrivalPosLat="0.00" arrivalSpeed="24.67" duration="88.60" routeLength="1645.38" waitingTime="0.00" waitingCount="0" stopTime="0.00" timeLoss="27.01" rerouteNo="1" devices="tripinfo_D1_1.4 routing_D1_1.4" vType="jeep" speedFactor="1.00" vaporized=""/>
    <tripinfo id="A2_1.4" depart="142.50" departLane="-793339796#2_1" departPos="5.10" departPosLat="0.00" departSpeed="24.79" departDelay="16.70" arrival="201.70" arrivalLane="-440471861#0_1" arrivalPos="31.52" arrivalPosLat="0.00" arrivalSpeed="24.74" duration="59.20" routeLength="1081.27" waitingTime="0.00" waitingCount="0" stopTime="0.00" timeLoss="15.49" rerouteNo="1" devices="tripinfo_A2_1.4 routing_A2_1.4" vType="car" speedFactor="0.89" vaporized=""/>
    <tripinfo id="A3_1.2" depart="142.50" departLane="-793339796#2_2" departPos="2.30" departPosLat="0.00" departSpeed="24.72" departDelay="15.40" arrival="202.00" arrivalLane="-140483224#1_2" arrivalPos="64.04" arrivalPosLat="0.00" arrivalSpeed="29.72" duration="59.50" routeLength="1083.74" waitingTime="0.10" waitingCount="1" stopTime="0.00" timeLoss="23.59" rerouteNo="1" devices="tripinfo_A3_1.2 routing_A3_1.2" vType="tricycle" speedFactor="1.13" vaporized=""/>
    <tripinfo id="D1_1.5" depart="117.10" departLane="140483224#1_1" departPos="8.10" departPosLat="0.00" departSpeed="27.78" departDelay="0.00" arrival="205.60" arrivalLane="-793339796#2_2" arrivalPos="82.50" arrivalPosLat="0.00" arrivalSpeed="24.41" duration="88.50" routeLength="1645.38" waitingTime="0.00" waitingCount="0" stopTime="0.00" timeLoss="26.98" rerouteNo="1" devices="tripinfo_D1_1.5 routing_D1_1.5" vType="jeep" speedFactor="1.00" vaporized=""/>
    <tripinfo id="D2_1.1" depart="93.70" departLane="140483224#1_1" departPos="5.10" departPosLat="0.00" departSpeed="24.64" departDelay="0.00" arrival="207.40" arrivalLane="-145894807#0_1" arrivalPos="260.95" arrivalPosLat="0.00" arrivalSpeed="7.38" duration="113.70" routeLength="1092.76" waitingTime="1.30" waitingCount="2" stopTime="0.00" timeLoss="17.48" rerouteNo="1" devices="tripinfo_D2_1.1 routing_D2_1.1" vType="car" speedFactor="0.89" vaporized=""/>
    <personinfo id="pf_2.8" depart="180.00" type="ped" speedFactor="0.98" duration="32.40" waitingTime="7.40" timeLoss="9.92" traveltime="32.40">
        <walk depart="180.00" departPos="15.09" arrival="212.40" arrivalPos="3.44" duration="32.40" routeLength="30.72" timeLoss="9.92" maxSpeed="1.37" waitingTime="7.40"/>
    </personinfo>
    <personinfo id="pf_4.4" depart="90.00" type="ped" speedFactor="0.98" duration="123.00" waitingTime="2.40" timeLoss="14.23" traveltime="123.00">
        <walk depart="90.00" departPos="25.00" arrival="148.60" arrivalPos="29.11" duration="58.60" routeLength="72.15" timeLoss="5.70" maxSpeed="1.36" waitingTime="0.00"/>
        <walk depart="148.60" departPos="29.11" arrival="213.00" arrivalPos="29.05" duration="64.40" routeLength="76.20" timeLoss="8.53" maxSpeed="1.36" waitingTime="2.40"/>
    </personinfo>
    <tripinfo id="B1_1.0" depart="75.60" departLane="-361257727#0_1" departPos="5.10" departPosLat="0.00" departSpeed="8.37" departDelay="0.00" arrival="224.70" arrivalLane="-793339796#2_2" arrivalPos="82.50" arrivalPosLat="0.00" arrivalSpeed="27.80" duration="149.10" routeLength="1915.44" waitingTime="0.00" waitingCount="0" stopTime="0.00" timeLoss="15.11" rerouteNo="1" devices="tripinfo_B1_1.0 routing_B1_1.0" vType="car" speedFactor="1.00" vaporized=""/>
    <personinfo id="pf_4.5" depart="112.50" type="ped" speedFactor="1.08" duration="112.80" waitingTime="3.40" timeLoss="14.24" traveltime="112.80">
        <walk depart="112.50" departPos="25.00" arrival="165.90" arrivalPos="29.11" duration="53.40" routeLength="72.15" timeLoss="5.47" maxSpeed="1.51" waitingTime="0.00"/>
        <walk depart="165.90" departPos="29.11" arrival="225.30" arrivalPos="29.05" duration="59.40" routeLength="76.20" timeLoss="8.77" maxSpeed="1.51" waitingTime="3.40"/>
    </personinfo>
    <personinfo id="pf_2.9" depart="202.50" type="ped" speedFactor="0.94" duration="26.10" waitingTime="0.00" timeLoss="2.57" traveltime="26.10">
        <walk depart="202.50" departPos="15.09" arrival="228.60" arrivalPos="3.44" duration="26.10" routeLength="30.72" timeLoss="2.57" maxSpeed="1.31" waitingTime="0.00"/>
    </personinfo>
    <tripinfo id="D2_1.2" depart="134.80" departLane="140483224#1_1" departPos="5.10" departPosLat="0.00" departSpeed="25.50" departDelay="0.00" arrival="229.30" arrivalLane="-145894807#0_1" arrivalPos="260.95" arrivalPosLat="0.00" arrivalSpeed="7.62" duration="94.50" routeLength="1092.76" waitingTime="0.00" waitingCount="0" stopTime="0.00" timeLoss="1.62" rerouteNo="1" devices="tripinfo_D2_1.2 routing_D2_1.2" vType="car" speedFactor="0.92" vaporized=""/>
    <personinfo id="pf_1.0" depart="0.00" type="ped" speedFactor="1.06" duration="235.50" waitingTime="0.00" timeLoss="23.80" traveltime="235.50">
        <walk depart="0.00" departPos="25.00" arrival="235.50" arrivalPos="3.44" duration="235.50" routeLength="311.67" timeLoss="23.80" maxSpeed="1.47" waitingTime="0.00"/>
    </personinfo>
    <tripinfo id="C1_1.4" depart="125.70" departLane="440471861#0_1" departPos="5.10" departPosLat="0.00" departSpeed="28.41" departDelay="0.00" arrival="237.30" arrivalLane="-793339796#2_1" arrivalPos="82.50" arrivalPosLat="-0.00" arrivalSpeed="28.38" duration="111.60" routeLength="1653.99" waitingTime="33.50" waitingCount="1" stopTime="0.00" timeLoss="52.28" rerouteNo="1" devices="tripinfo_C1_1.4 routing_C1_1.4" vType="car" speedFactor="1.02" vaporized=""/>
    <personinfo id="pf_4.6" depart="135.00" type="ped" speedFactor="1.24" duration="110.10" waitingTime="14.10" timeLoss="24.04" traveltime="110.10">
        <walk depart="135.00" departPos="25.00" arrival="193.80" arrivalPos="29.11" duration="58.80" routeLength="72.15" timeLoss="16.94" maxSpeed="1.72" waitingTime="12.10"/>
        <walk depart="193.80" departPos="29.11" arrival="245.10" arrivalPos="29.05" duration="51.30" routeLength="76.20" timeLoss="7.10" maxSpeed="1.72" waitingTime="2.00"/>
    </personinfo>
    <tripinfo id="C3_1.4" depart="109.30" departLane="440471861#0_1" departPos="8.10" departPosLat="0.00" departSpeed="27.78" departDelay="0.00" arrival="247.60" arrivalLane="-140483224#1_2" arrivalPos="64.04" arrivalPosLat="0.00" arrivalSpeed="27.76" duration="138.30" routeLength="1049.78" waitingTime="79.90" waitingCount="1" stopTime="0.00" timeLoss="99.12" rerouteNo="1" devices="tripinfo_C3_1.4 routing_C3_1.4" vType="jeep" speedFactor="1.00" vaporized=""/>
    <personinfo id="pf_2.10" depart="225.00" type="ped" speedFactor="1.09" duration="23.70" waitingTime="0.90" timeLoss="3.35" traveltime="23.70">
        <walk depart="225.00" departPos="15.09" arrival="248.70" arrivalPos="3.44" duration="23.70" routeLength="30.72" timeLoss="3.35" maxSpeed="1.51" waitingTime="0.90"/>
    </personinfo>
    <tripinfo id="C3_1.5" depart="156.50" departLane="440471861#0_1" departPos="8.10" departPosLat="0.00" departSpeed="27.78" departDelay="0.00" arrival="249.50" arrivalLane="-140483224#1_1" arrivalPos="64.04" arrivalPosLat="-0.00" arrivalSpeed="27.74" duration="93.00" routeLength="1049.78" waitingTime="21.10" waitingCount="2" stopTime="0.00" timeLoss="53.86" rerouteNo="1" devices="tripinfo_C3_1.5 routing_C3_1.5" vType="jeep" speedFactor="1.00" vaporized=""/>
    <tripinfo id="C1_1.7" depart="160.50" departLane="440471861#0_1" departPos="5.10" departPosLat="0.00" departSpeed="30.21" departDelay="0.00" arrival="253.90" arrivalLane="-793339796#2_1" arrivalPos="82.50" arrivalPosLat="-0.00" arrivalSpeed="30.16" duration="93.40" routeLength="1653.99" waitingTime="0.00" waitingCount="0" stopTime="0.00" timeLoss="37.60" rerouteNo="1" devices="tripinfo_C1_1.7 routing_C1_1.7" vType="car" speedFactor="1.09" vaporized=""/>
    <tripinfo id="C3_1.6" depart="208.00" departLane="440471861#0_1" departPos="5.10" departPosLat="0.00" departSpeed="26.68" departDelay="0.00" arrival="254.00" arrivalLane="-140483224#1_2" arrivalPos="64.04" arrivalPosLat="0.00" arrivalSpeed="26.67" duration="46.00" routeLength="1052.78" waitingTime="0.00" waitingCount="0" stopTime="0.00" timeLoss="5.08" rerouteNo="1" devices="tripinfo_C3_1.6 routing_C3_1.6" vType="car" speedFactor="0.96" vaporized=""/>
    <tripinfo id="C1_1.6" depart="142.00" departLane="440471861#0_1" departPos="7.20" departPosLat="0.00" departSpeed="24.83" departDelay="0.00" arrival="255.70" arrivalLane="-793339796#2_1" arrivalPos="82.50" arrivalPosLat="-0.00" arrivalSpeed="24.78" duration="113.70" routeLength="1651.89" waitingTime="8.90" waitingCount="1" stopTime="0.00" timeLoss="45.90" rerouteNo="1" devices="tripinfo_C1_1.6 routing_C1_1.6" vType="truck" speedFactor="0.89" vaporized=""/>
    <tripinfo id="B2_1.2" depart="129.20" departLane="-361257727#0_1" departPos="5.10" departPosLat="0.00" departSpeed="7.05" departDelay="0.00" arrival="268.50" arrivalLane="-440471861#0_1" arrivalPos="31.52" arrivalPosLat="-0.00" arrivalSpeed="26.81" duration="139.30" routeLength="1397.68" waitingTime="2.30" waitingCount="1" stopTime="0.00" timeLoss="18.09" rerouteNo="1" devices="tripinfo_B2_1.2 routing_B2_1.2" vType="car" speedFactor="0.97" vaporized=""/>
    <personinfo id="pf_4.7" depart="157.50" type="ped" speedFactor="1.06" duration="112.60" waitingTime="0.80" timeLoss="11.91" traveltime="112.60">
        <walk depart="157.50" departPos="25.00" arrival="212.00" arrivalPos="29.11" duration="54.50" routeLength="72.15" timeLoss="5.53" maxSpeed="1.47" waitingTime="0.00"/>
        <walk depart="212.00" departPos="29.11" arrival="270.10" arrivalPos="29.05" duration="58.10" routeLength="76.20" timeLoss="6.38" maxSpeed="1.47" waitingTime="0.80"/>
    </personinfo>
    <tripinfo id="B2_1.3" depart="150.30" departLane="-361257727#0_1" departPos="12.10" departPosLat="0.00" departSpeed="8.33" departDelay="0.00" arrival="277.60" arrivalLane="-440471861#0_1" arrivalPos="31.52" arrivalPosLat="-0.00" arrivalSpeed="27.77" duration="127.30" routeLength="1390.68" waitingTime="0.00" waitingCount="0" stopTime="0.00" timeLoss="11.00" rerouteNo="1" devices="tripinfo_B2_1.3 routing_B2_1.3" vType="bus" speedFactor="1.00" vaporized=""/>
    <tripinfo id="C1_1.5" depart="131.40" departLane="440471861#0_1" departPos="12.10" departPosLat="0.00" departSpeed="27.78" departDelay="0.00" arrival="278.50" arrivalLane="-793339796#2_2" arrivalPos="82.50" arrivalPosLat="0.00" arrivalSpeed="24.31" duration="147.10" routeLength="1646.99" waitingTime="32.90" waitingCount="1" stopTime="0.00" timeLoss="86.69" rerouteNo="1" devices="tripinfo_C1_1.5 routing_C1_1.5" vType="bus" speedFactor="1.00" vaporized=""/>
    <personinfo id="pf_2.11" depart="247.50" type="ped" speedFactor="0.90" duration="31.30" waitingTime="3.80" timeLoss="6.62" traveltime="31.30">
        <walk depart="247.50" departPos="15.09" arrival="278.80" arrivalPos="3.44" duration="31.30" routeLength="30.72" timeLoss="6.62" maxSpeed="1.24" waitingTime="3.80"/>
    </personinfo>
    <tripinfo id="B3_1.0" depart="127.70" departLane="-361257727#0_1" departPos="8.10" departPosLat="0.00" departSpeed="8.33" departDelay="0.00" arrival="286.60" arrivalLane="-140483224#1_1" arrivalPos="64.04" arrivalPosLat="0.00" arrivalSpeed="27.72" duration="158.90" routeLength="1407.94" waitingTime="12.10" waitingCount="2" stopTime="0.00" timeLoss="42.01" rerouteNo="1" devices="tripinfo_B3_1.0 routing_B3_1.0" vType="jeep" speedFactor="1.00" vaporized=""/>
    <tripinfo id="D3_1.1" depart="179.60" departLane="140483224#1_2" departPos="5.10" departPosLat="0.00" departSpeed="29.50" departDelay="0.00" arrival="297.10" arrivalLane="-440471861#0_2" arrivalPos="31.52" arrivalPosLat="0.00" arrivalSpeed="29.49" duration="117.50" routeLength="1067.97" waitingTime="70.50" waitingCount="1" stopTime="0.00" timeLoss="79.79" rerouteNo="1" devices="tripinfo_D3_1.1 routing_D3_1.1" vType="car" speedFactor="1.06" vaporized=""/>
    <personinfo id="pf_4.8" depart="180.00" type="ped" speedFactor="1.09" duration="118.50" waitingTime="9.50" timeLoss="20.28" traveltime="118.50">