<?xml version="1.0" encoding="UTF-8"?>

<!-- generated on 2025-11-18 13:36:54 by Eclipse SUMO sumo Version 1.24.0
<sumoConfiguration xmlns:xsi="http://www.w3.org/2001/XMLSchema-instance" xsi:noNamespaceSchemaLocation="http://sumo.dlr.de/xsd/sumoConfiguration.xsd">

    <input>
        <net-file value="Olivarez_traci\network/baseline.net.xml"/>
        <route-files value="Olivarez_traci\demand\flows_slow_traffic.rou.xml"/>
        <additional-files value="Olivarez_traci\additionals/map.poly.xml,Olivarez_traci\ additionals/detectors.add.xml"/>
    </input>

    <output>
        <tripinfo-output value="Olivarez_traci\output_A2C_Baseline\SP_A2C_Baseline_Slow_trips.xml"/>
        <statistic-output value="Olivarez_traci\output_A2C_Baseline\SP_A2C_Baseline_Slow_stats.xml"/>
    </output>

    <time>
        <begin value="0"/>
        <end value="10800"/>
        <step-length value="0.1"/>
    </time>

    <processing>
        <lateral-resolution value="0.1"/>
        <collision.action value="none"/>
        <collision.check-junctions value="false"/>
        <collision.mingap-factor value="0"/>
    </processing>

    <report>
        <no-warnings value="true"/>
    </report>

    <traci_server>
        <remote-port value="64559"/>
    </traci_server>

    <gui_only>
        <delay value="0"/>
    </gui_only>

</sumoConfiguration>
-->

<tripinfos xmlns:xsi="http://www.w3.org/2001/XMLSchema-instance" xsi:noNamespaceSchemaLocation="http://sumo.dlr.de/xsd/tripinfo_file.xsd">
    <personinfo id="pf_2.0" depart="0.00" type="ped" speedFactor="0.95" duration="25.70" waitingTime="0.00" timeLoss="2.65" traveltime="25.70">
        <walk depart="0.00" departPos="15.72" arrival="25.70" arrivalPos="4.00" duration="25.70" routeLength="30.33" timeLoss="2.65" maxSpeed="1.32" waitingTime="0.00"/>
    </personinfo>
    <personinfo id="pf_2.1" depart="18.00" type="ped" speedFactor="0.87" duration="27.60" waitingTime="0.00" timeLoss="2.64" traveltime="27.60">
        <walk depart="18.00" departPos="15.72" arrival="45.60" arrivalPos="4.00" duration="27.60" routeLength="30.33" timeLoss="2.64" maxSpeed="1.22" waitingTime="0.00"/>
    </personinfo>
    <personinfo id="pf_2.2" depart="36.00" type="ped" speedFactor="1.03" duration="23.30" waitingTime="0.00" timeLoss="2.20" traveltime="23.30">
        <walk depart="36.00" departPos="15.72" arrival="59.30" arrivalPos="4.00" duration="23.30" routeLength="30.33" timeLoss="2.20" maxSpeed="1.44" waitingTime="0.00"/>
    </personinfo>
    <tripinfo id="A2_1.1" depart="16.40" departLane="-793339796#2_1" departPos="5.10" departPosLat="0.00" departSpeed="25.27" departDelay="0.00" arrival="60.30" arrivalLane="-440471861#0_2" arrivalPos="31.49" arrivalPosLat="0.00" arrivalSpeed="25.15" duration="43.90" routeLength="1081.89" waitingTime="0.00" waitingCount="0" stopTime="0.00" timeLoss="1.07" rerouteNo="1" devices="tripinfo_A2_1.1 routing_A2_1.1" vType="car" speedFactor="0.91" vaporized=""/>
    <tripinfo id="A2_1.0" depart="8.90" departLane="-793339796#2_1" departPos="8.10" departPosLat="0.00" departSpeed="27.78" departDelay="0.00" arrival="69.70" arrivalLane="-440471861#0_1" arrivalPos="31.49" arrivalPosLat="0.00" arrivalSpeed="27.73" duration="60.80" routeLength="1078.89" waitingTime="3.40" waitingCount="1" stopTime="0.00" timeLoss="21.95" rerouteNo="1" devices="tripinfo_A2_1.0 routing_A2_1.0" vType="jeep" speedFactor="1.00" vaporized=""/>
    <personinfo id="pf_2.3" depart="54.00" type="ped" speedFactor="1.11" duration="22.00" waitingTime="0.00" timeLoss="2.30" traveltime="22.00">
        <walk depart="54.00" departPos="15.72" arrival="76.00" arrivalPos="4.00" duration="22.00" routeLength="30.33" timeLoss="2.30" maxSpeed="1.54" waitingTime="0.00"/>
    </personinfo>
    <tripinfo id="D1_1.0" depart="1.20" departLane="140483224#1_1" departPos="5.10" departPosLat="0.00" departSpeed="25.60" departDelay="0.00" arrival="80.10" arrivalLane="-793339796#2_2" arrivalPos="83.13" arrivalPosLat="0.00" arrivalSpeed="25.55" duration="78.90" routeLength="1648.45" waitingTime="0.00" waitingCount="0" stopTime="0.00" timeLoss="11.94" rerouteNo="1" devices="tripinfo_D1_1.0 routing_D1_1.0" vType="car" speedFactor="0.92" vaporized=""/>
    <personinfo id="pf_2.4" depart="72.00" type="ped" speedFactor="1.07" duration="22.70" waitingTime="0.00" timeLoss="2.24" traveltime="22.70">
        <walk depart="72.00" departPos="15.72" arrival="94.70" arrivalPos="4.00" duration="22.70" routeLength="30.33" timeLoss="2.24" maxSpeed="1.48" waitingTime="0.00"/>
    </personinfo>
    <tripinfo id="C3_1.0" depart="8.60" departLane="440471861#0_1" departPos="5.10" departPosLat="0.00" departSpeed="29.95" departDelay="0.00" arrival="101.00" arrivalLane="-140483224#1_1" arrivalPos="64.17" arrivalPosLat="-0.00" arrivalSpeed="29.84" duration="92.40" routeLength="1053.93" waitingTime="46.20" waitingCount="1" stopTime="0.00" timeLoss="56.10" rerouteNo="1" devices="tripinfo_C3_1.0 routing_C3_1.0" vType="car" speedFactor="1.08" vaporized=""/>
    <tripinfo id="C3_1.1" depart="22.80" departLane="440471861#0_1" departPos="5.10" departPosLat="0.00" departSpeed="29.43" departDelay="0.00" arrival="102.70" arrivalLane="-140483224#1_1" arrivalPos="64.17" arrivalPosLat="-0.00" arrivalSpeed="29.39" duration="79.90" routeLength="1053.93" waitingTime="28.00" waitingCount="1" stopTime="0.00" timeLoss="43.02" rerouteNo="1" devices="tripinfo_C3_1.1 routing_C3_1.1" vType="car" speedFactor="1.06" vaporized=""/>
    <tripinfo id="C3_1.2" depart="47.20" departLane="440471861#0_1" departPos="5.10" departPosLat="0.00" departSpeed="29.16" departDelay="0.00" arrival="104.80" arrivalLane="-140483224#1_1" arrivalPos="64.17" arrivalPosLat="0.00" arrivalSpeed="29.07" duration="57.60" routeLength="1053.93" waitingTime="3.90" waitingCount="1" stopTime="0.00" timeLoss="20.28" rerouteNo="1" devices="tripinfo_C3_1.2 routing_C3_1.2" vType="car" speedFactor="1.05" vaporized=""/>
    <personinfo id="pf_2.5" depart="90.00" type="ped" speedFactor="1.02" duration="23.90" waitingTime="0.00" timeLoss="2.53" traveltime="23.90">
        <walk depart="90.00" departPos="15.72" arrival="113.90" arrivalPos="4.00" duration="23.90" routeLength="30.33" timeLoss="2.53" maxSpeed="1.42" waitingTime="0.00"/>
    </personinfo>
    <tripinfo id="D3_1.0" depart="15.30" departLane="140483224#1_2" departPos="5.10" departPosLat="0.00" departSpeed="29.25" departDelay="0.00" arrival="121.50" arrivalLane="-440471861#0_2" arrivalPos="31.49" arrivalPosLat="0.00" arrivalSpeed="29.20" duration="106.20" routeLength="1069.09" waitingTime="59.10" waitingCount="1" stopTime="0.00" timeLoss="68.21" rerouteNo="1" devices="tripinfo_D3_1.0 routing_D3_1.0" vType="car" speedFactor="1.05" vaporized=""/>
    <tripinfo id="C1_1.2" depart="63.70" departLane="440471861#0_1" departPos="2.30" departPosLat="0.00" departSpeed="31.15" departDelay="0.00" arrival="127.80" arrivalLane="-793339796#2_2" arrivalPos="83.13" arrivalPosLat="0.00" arrivalSpeed="30.93" duration="64.10" routeLength="1656.83" waitingTime="0.00" waitingCount="0" stopTime="0.00" timeLoss="9.92" rerouteNo="1" devices="tripinfo_C1_1.2 routing_C1_1.2" vType="motorcycle" speedFactor="1.12" vaporized=""/>
    <personinfo id="pf_2.6" depart="108.00" type="ped" speedFactor="1.00" duration="24.20" waitingTime="0.00" timeLoss="2.43" traveltime="24.20">
        <walk depart="108.00" departPos="15.72" arrival="132.20" arrivalPos="4.00" duration="24.20" routeLength="30.33" timeLoss="2.43" maxSpeed="1.39" waitingTime="0.00"/>
    </personinfo>
    <tripinfo id="C1_1.0" depart="35.30" departLane="440471861#0_1" departPos="5.10" departPosLat="0.00" departSpeed="27.04" departDelay="0.00" arrival="133.20" arrivalLane="-793339796#2_2" arrivalPos="83.13" arrivalPosLat="0.00" arrivalSpeed="27.00" duration="97.90" routeLength="1654.03" waitingTime="17.30" waitingCount="1" stopTime="0.00" timeLoss="35.53" rerouteNo="1" devices="tripinfo_C1_1.0 routing_C1_1.0" vType="car" speedFactor="0.97" vaporized=""/>
    <tripinfo id="A2_1.2" depart="41.40" departLane="-793339796#2_1" departPos="2.30" departPosLat="0.00" departSpeed="31.61" departDelay="0.00" arrival="136.70" arrivalLane="-440471861#0_1" arrivalPos="31.49" arrivalPosLat="0.00" arrivalSpeed="31.43" duration="95.30" routeLength="1084.69" waitingTime="55.20" waitingCount="1" stopTime="0.00" timeLoss="60.94" rerouteNo="1" devices="tripinfo_A2_1.2 routing_A2_1.2" vType="motorcycle" speedFactor="1.14" vaporized=""/>
    <tripinfo id="C1_1.1" depart="57.10" departLane="440471861#0_1" departPos="2.30" departPosLat="0.00" departSpeed="26.43" departDelay="0.00" arrival="140.00" arrivalLane="-793339796#2_2" arrivalPos="83.13" arrivalPosLat="0.00" arrivalSpeed="26.36" duration="82.90" routeLength="1656.83" waitingTime="0.00" waitingCount="0" stopTime="0.00" timeLoss="19.06" rerouteNo="1" devices="tripinfo_C1_1.1 routing_C1_1.1" vType="tricycle" speedFactor="0.95" vaporized=""/>
    <tripinfo id="A2_1.3" depart="54.10" departLane="-793339796#2_1" departPos="5.10" departPosLat="0.00" departSpeed="26.30" departDelay="0.00" arrival="143.30" arrivalLane="-440471861#0_1" arrivalPos="31.49" arrivalPosLat="-0.00" arrivalSpeed="26.22" duration="89.20" routeLength="1081.89" waitingTime="38.00" waitingCount="1" stopTime="0.00" timeLoss="48.05" rerouteNo="1" devices="tripinfo_A2_1.3 routing_A2_1.3" vType="car" speedFactor="0.95" vaporized=""/>
    <tripinfo id="A3_1.0" depart="31.00" departLane="-793339796#2_2" departPos="5.10" departPosLat="0.00" departSpeed="24.06" departDelay="0.00" arrival="145.10" arrivalLane="-140483224#1_2" arrivalPos="64.17" arrivalPosLat="0.00" arrivalSpeed="24.02" duration="114.10" routeLength="1081.71" waitingTime="60.00" waitingCount="1" stopTime="0.00" timeLoss="67.41" rerouteNo="1" devices="tripinfo_A3_1.0 routing_A3_1.0" vType="car" speedFactor="0.87" vaporized=""/>
    <personinfo id="pf_2.7" depart="126.00" type="ped" speedFactor="0.97" duration="24.90" waitingTime="0.00" timeLoss="2.41" traveltime="24.90">
        <walk depart="126.00" departPos="15.72" arrival="150.90" arrivalPos="4.00" duration="24.90" routeLength="30.33" timeLoss="2.41" maxSpeed="1.35" waitingTime="0.00"/>
    </personinfo>
    <tripinfo id="A3_1.1" depart="61.00" departLane="-793339796#2_2" departPos="8.10" departPosLat="0.00" departSpeed="27.78" departDelay="0.00" arrival="151.70" arrivalLane="-140483224#1_2" arrivalPos="64.17" arrivalPosLat="0.00" arrivalSpeed="27.74" duration="90.70" routeLength="1078.71" waitingTime="28.70" waitingCount="1" stopTime="0.00" timeLoss="50.41" rerouteNo="1" devices="tripinfo_A3_1.1 routing_A3_1.1" vType="jeep" speedFactor="1.00" vaporized=""/>
    <tripinfo id="C2_1.0" depart="40.30" departLane="440471861#0_2" departPos="8.10" departPosLat="0.00" departSpeed="27.78" departDelay="0.00" arrival="159.50" arrivalLane="-145894807#0_1" arrivalPos="260.97" arrivalPosLat="0.00" arrivalSpeed="8.32" duration="119.20" routeLength="1096.91" waitingTime="11.80" waitingCount="2" stopTime="0.00" timeLoss="31.94" rerouteNo="1" devices="tripinfo_C2_1.0 routing_C2_1.0" vType="jeep" speedFactor="1.00" vaporized=""/>
    <tripinfo id="B2_1.0" depart="13.90" departLane="-361257727#0_1" departPos="5.10" departPosLat="0.00" departSpeed="9.67" departDelay="0.00" arrival="161.30" arrivalLane="-440471861#0_1" arrivalPos="31.49" arrivalPosLat="-0.00" arrivalSpeed="32.16" duration="147.40" routeLength="1414.29" waitingTime="33.20" waitingCount="1" stopTime="0.00" timeLoss="44.91" rerouteNo="1" devices="tripinfo_B2_1.0 routing_B2_1.0" vType="car" speedFactor="1.16" vaporized=""/>
    <tripinfo id="C2_1.1" depart="54.60" departLane="440471861#0_2" departPos="5.10" departPosLat="0.00" departSpeed="28.59" departDelay="0.00" arrival="161.70" arrivalLane="-145894807#0_1" arrivalPos="260.97" arrivalPosLat="0.00" arrivalSpeed="8.50" duration="107.10" routeLength="1099.91" waitingTime="0.00" waitingCount="0" stopTime="0.00" timeLoss="22.27" rerouteNo="1" devices="tripinfo_C2_1.1 routing_C2_1.1" vType="car" speedFactor="1.03" vaporized=""/>
    <tripinfo id="D1_1.1" depart="47.90" departLane="140483224#1_1" departPos="7.20" departPosLat="0.00" departSpeed="26.19" departDelay="0.00" arrival="165.30" arrivalLane="-793339796#2_2" arrivalPos="83.13" arrivalPosLat="0.00" arrivalSpeed="25.40" duration="117.40" routeLength="1646.35" waitingTime="23.90" waitingCount="1" stopTime="0.00" timeLoss="52.06" rerouteNo="1" devices="tripinfo_D1_1.1 routing_D1_1.1" vType="truck" speedFactor="0.94" vaporized=""/>
    <personinfo id="pf_2.8" depart="144.00" type="ped" speedFactor="0.96" duration="25.10" waitingTime="0.00" timeLoss="2.40" traveltime="25.10">
        <walk depart="144.00" departPos="15.72" arrival="169.10" arrivalPos="4.00" duration="25.10" routeLength="30.33" timeLoss="2.40" maxSpeed="1.34" waitingTime="0.00"/>
    </personinfo>
    <tripinfo id="D1_1.2" depart="74.50" departLane="140483224#1_1" departPos="8.10" departPosLat="0.00" departSpeed="27.78" departDelay="0.00" arrival="170.40" arrivalLane="-793339796#2_2" arrivalPos="83.13" arrivalPosLat="0.00" arrivalSpeed="24.26" duration="95.90" routeLength="1645.45" waitingTime="0.00" waitingCount="0" stopTime="0.00" timeLoss="34.38" rerouteNo="1" devices="tripinfo_D1_1.2 routing_D1_1.2" vType="jeep" speedFactor="1.00" vaporized=""/>
    <tripinfo id="D1_1.3" depart="92.30" departLane="140483224#1_1" departPos="5.10" departPosLat="0.00" departSpeed="29.18" departDelay="0.00" arrival="171.60" arrivalLane="-793339796#2_2" arrivalPos="83.13" arrivalPosLat="0.00" arrivalSpeed="26.13" duration="79.30" routeLength="1648.45" waitingTime="0.00" waitingCount="0" stopTime="0.00" timeLoss="20.49" rerouteNo="1" devices="tripinfo_D1_1.3 routing_D1_1.3" vType="car" speedFactor="1.05" vaporized=""/>
    <personinfo id="pf_2.9" depart="162.00" type="ped" speedFactor="0.98" duration="24.60" waitingTime="0.00" timeLoss="2.41" traveltime="24.60">
        <walk depart="162.00" departPos="15.72" arrival="186.60" arrivalPos="4.00" duration="24.60" routeLength="30.33" timeLoss="2.41" maxSpeed="1.37" waitingTime="0.00"/>
    </personinfo>
    <tripinfo id="D2_1.0" depart="67.30" departLane="140483224#1_1" departPos="5.10" departPosLat="0.00" departSpeed="22.42" departDelay="0.00" arrival="187.90" arrivalLane="-145894807#0_1" arrivalPos="260.97" arrivalPosLat="0.00" arrivalSpeed="6.68" duration="120.60" routeLength="1109.85" waitingTime="2.80" waitingCount="1" stopTime="0.00" timeLoss="12.44" rerouteNo="1" devices="tripinfo_D2_1.0 routing_D2_1.0" vType="car" speedFactor="0.81" vaporized=""/>
    <tripinfo id="C3_1.3" depart="87.10" departLane="440471861#0_1" departPos="2.30" departPosLat="0.00" departSpeed="27.62" departDelay="0.00" arrival="188.50" arrivalLane="-140483224#1_1" arrivalPos="64.17" arrivalPosLat="-0.00" arrivalSpeed="27.56" duration="101.40" routeLength="1056.73" waitingTime="45.70" waitingCount="1" stopTime="0.00" timeLoss="61.98" rerouteNo="1" devices="tripinfo_C3_1.3 routing_C3_1.3" vType="tricycle" speedFactor="0.99" vaporized=""/>
    <tripinfo id="C3_1.4" depart="109.30" departLane="440471861#0_1" departPos="5.10" departPosLat="0.00" departSpeed="32.64" departDelay="0.00" arrival="190.80" arrivalLane="-140483224#1_2" arrivalPos="64.17" arrivalPosLat="0.00" arrivalSpeed="32.59" duration="81.50" routeLength="1053.93" waitingTime="24.70" waitingCount="1" stopTime="0.00" timeLoss="48.16" rerouteNo="1" devices="tripinfo_C3_1.4 routing_C3_1.4" vType="car" speedFactor="1.17" vaporized=""/>
    <personinfo id="pf_2.10" depart="180.00" type="ped" speedFactor="1.10" duration="21.80" waitingTime="0.00" timeLoss="2.03" traveltime="21.80">
        <walk depart="180.00" departPos="15.72" arrival="201.80" arrivalPos="4.00" duration="21.80" routeLength="30.33" timeLoss="2.03" maxSpeed="1.53" waitingTime="0.00"/>
    </personinfo>
    <personinfo id="pf_2.11" depart="198.00" type="ped" speedFactor="1.04" duration="23.50" waitingTime="0.00" timeLoss="2.43" traveltime="23.50">
        <walk depart="198.00" departPos="15.72" arrival="221.50" arrivalPos="4.00" duration="23.50" routeLength="30.33" timeLoss="2.43" maxSpeed="1.44" waitingTime="0.00"/>
    </personinfo>
    <tripinfo id="A3_1.2" depart="127.10" departLane="-793339796#2_2" departPos="5.10" departPosLat="0.00" departSpeed="26.00" departDelay="0.00" arrival="222.20" arrivalLane="-140483224#1_2" arrivalPos="64.17" arrivalPosLat="0.00" arrivalSpeed="31.78" duration="95.10" routeLength="1081.71" waitingTime="49.10" waitingCount="1" stopTime="0.00" timeLoss="59.82" rerouteNo="1" devices="tripinfo_A3_1.2 routing_A3_1.2" vType="car" speedFactor="1.15" vaporized=""/>
    <tripinfo id="A3_1.3" depart="173.20" departLane="-793339796#2_1" departPos="2.30" departPosLat="0.00" departSpeed="28.75" departDelay="0.00" arrival="224.00" arrivalLane="-140483224#1_2" arrivalPos="64.17" arrivalPosLat="0.00" arrivalSpeed="28.63" duration="50.80" routeLength="1084.51" waitingTime="0.00" waitingCount="0" stopTime="0.00" timeLoss="11.61" rerouteNo="1" devices="tripinfo_A3_1.3 routing_A3_1.3" vType="motorcycle" speedFactor="1.03" vaporized=""/>
    <tripinfo id="C1_1.4" depart="125.70" departLane="440471861#0_1" departPos="8.10" departPosLat="0.00" departSpeed="27.78" departDelay="0.00" arrival="227.70" arrivalLane="-793339796#2_1" arrivalPos="83.13" arrivalPosLat="-0.00" arrivalSpeed="24.52" duration="102.00" routeLength="1651.03" waitingTime="7.90" waitingCount="1" stopTime="0.00" timeLoss="41.45" rerouteNo="1" devices="tripinfo_C1_1.4 routing_C1_1.4" vType="jeep" speedFactor="1.00" vaporized=""/>
    <tripinfo id="A2_1.4" depart="125.80" departLane="-793339796#2_1" departPos="8.10" departPosLat="0.00" departSpeed="27.78" departDelay="0.00" arrival="231.80" arrivalLane="-440471861#0_1" arrivalPos="31.49" arrivalPosLat="0.00" arrivalSpeed="27.75" duration="106.00" routeLength="1078.89" waitingTime="48.50" waitingCount="1" stopTime="0.00" timeLoss="67.14" rerouteNo="1" devices="tripinfo_A2_1.4 routing_A2_1.4" vType="jeep" speedFactor="1.00" vaporized=""/>
    <tripinfo id="C1_1.3" depart="82.10" departLane="440471861#0_1" departPos="8.10" departPosLat="0.00" departSpeed="27.78" departDelay="0.00" arrival="232.20" arrivalLane="-793339796#2_2" arrivalPos="83.13" arrivalPosLat="0.00" arrivalSpeed="24.28" duration="150.10" routeLength="1651.03" waitingTime="52.30" waitingCount="1" stopTime="0.00" timeLoss="89.47" rerouteNo="1" devices="tripinfo_C1_1.3 routing_C1_1.3" vType="jeep" speedFactor="1.00" vaporized=""/>
    <tripinfo id="A2_1.5" depart="129.90" departLane="-793339796#2_1" departPos="5.10" departPosLat="0.00" departSpeed="27.23" departDelay="0.00" arrival="233.20" arrivalLane="-440471861#0_1" arrivalPos="31.49" arrivalPosLat="0.00" arrivalSpeed="27.16" duration="103.30" routeLength="1081.89" waitingTime="40.90" waitingCount="1" stopTime="0.00" timeLoss="63.49" rerouteNo="1" devices="tripinfo_A2_1.5 routing_A2_1.5" vType="car" speedFactor="0.98" vaporized=""/>
    <tripinfo id="C1_1.5" depart="131.40" departLane="440471861#0_1" departPos="5.10" departPosLat="0.00" departSpeed="26.95" departDelay="0.00" arrival="233.40" arrivalLane="-793339796#2_2" arrivalPos="83.13" arrivalPosLat="0.00" arrivalSpeed="25.79" duration="102.00" routeLength="1654.03" waitingTime="0.00" waitingCount="0" stopTime="0.00" timeLoss="39.49" rerouteNo="1" devices="tripinfo_C1_1.5 routing_C1_1.5" vType="car" speedFactor="0.97" vaporized=""/>
    <tripinfo id="B1_1.0" depart="75.60" departLane="-361257727#0_1" departPos="5.10" departPosLat="0.00" departSpeed="8.27" departDelay="0.00" arrival="236.50" arrivalLane="-793339796#2_2" arrivalPos="83.13" arrivalPosLat="0.00" arrivalSpeed="27.53" duration="160.90" routeLength="1915.62" waitingTime="0.00" waitingCount="0" stopTime="0.00" timeLoss="25.25" rerouteNo="1" devices="tripinfo_B1_1.0 routing_B1_1.0" vType="car" speedFactor="0.99" vaporized=""/>
    <tripinfo id="D1_1.5" depart="117.10" departLane="140483224#1_1" departPos="2.30" departPosLat="0.00" departSpeed="30.40" departDelay="0.00" arrival="237.60" arrivalLane="-793339796#2_2" arrivalPos="83.13" arrivalPosLat="0.00" arrivalSpeed="30.30" duration="120.50" routeLength="1651.25" waitingTime="37.30" waitingCount="1" stopTime="0.00" timeLoss="63.98" rerouteNo="1" devices="tripinfo_D1_1.5 routing_D1_1.5" vType="motorcycle" speedFactor="1.09" vaporized=""/>
    <tripinfo id="C1_1.6" depart="142.00" departLane="440471861#0_1" departPos="8.10" departPosLat="0.00" departSpeed="27.78" departDelay="0.00" arrival="238.90" arrivalLane="-793339796#2_1" arrivalPos="83.13" arrivalPosLat="0.00" arrivalSpeed="24.53" duration="96.90" routeLength="1651.03" waitingTime="0.00" waitingCount="0" stopTime="0.00" timeLoss="36.43" rerouteNo="1" devices="tripinfo_C1_1.6 routing_C1_1.6" vType="jeep" speedFactor="1.00" vaporized=""/>
    <personinfo id="pf_2.12" depart="216.00" type="ped" speedFactor="1.00" duration="24.20" waitingTime="0.00" timeLoss="2.42" traveltime="24.20">
        <walk depart="216.00" departPos="15.72" arrival="240.20" arrivalPos="4.00" duration="24.20" routeLength="30.33" timeLoss="2.42" maxSpeed="1.39" waitingTime="0.00"/>
    </personinfo>
    <tripinfo id="A3_1.4" depart="193.40" departLane="-793339796#2_1" departPos="12.10" departPosLat="0.00" departSpeed="27.78" departDelay="0.00" arrival="241.20" arrivalLane="-140483224#1_2" arrivalPos="64.17" arrivalPosLat="0.00" arrivalSpeed="27.76" duration="47.80" routeLength="1074.71" waitingTime="0.00" waitingCount="0" stopTime="0.00" timeLoss="7.59" rerouteNo="1" devices="tripinfo_A3_1.4 routing_A3_1.4" vType="bus" speedFactor="1.00" vaporized=""/>
    <tripinfo id="A1_1.0" depart="157.90" departLane="-793339796#2_1" departPos="5.10" departPosLat="0.00" departSpeed="29.17" departDelay="0.00" arrival="247.20" arrivalLane="-145894807#0_1" arrivalPos="260.97" arrivalPosLat="0.00" arrivalSpeed="8.71" duration="89.30" routeLength="1057.45" waitingTime="0.00" waitingCount="0" stopTime="0.00" timeLoss="4.03" rerouteNo="1" devices="tripinfo_A1_1.0 routing_A1_1.0" vType="car" speedFactor="1.05" vaporized=""/>
    <tripinfo id="D1_1.4" depart="112.20" departLane="140483224#1_1" departPos="8.10" departPosLat="0.00" departSpeed="27.78" departDelay="0.00" arrival="249.10" arrivalLane="-793339796#2_2" arrivalPos="83.13" arrivalPosLat="0.00" arrivalSpeed="24.58" duration="136.90" routeLength="1645.45" waitingTime="42.50" waitingCount="1" stopTime="0.00" timeLoss="75.38" rerouteNo="1" devices="tripinfo_D1_1.4 routing_D1_1.4" vType="jeep" speedFactor="1.00" vaporized=""/>
    <tripinfo id="B2_1.1" depart="62.00" departLane="-361257727#0_1" departPos="7.20" departPosLat="0.00" departSpeed="8.80" departDelay="0.00" arrival="250.60" arrivalLane="-440471861#0_2" arrivalPos="31.49" arrivalPosLat="0.00" arrivalSpeed="29.34" duration="188.60" routeLength="1412.19" waitingTime="56.80" waitingCount="1" stopTime="0.00" timeLoss="76.28" rerouteNo="1" devices="tripinfo_B2_1.1 routing_B2_1.1" vType="truck" speedFactor="1.06" vaporized=""/>
    <personinfo id="pf_1.0" depart="0.00" type="ped" speedFactor="1.06" duration="250.90" waitingTime="3.70" timeLoss="27.99" traveltime="250.90">
        <walk depart="0.00" departPos="25.00" arrival="250.90" arrivalPos="4.00" duration="250.90" routeLength="328.17" timeLoss="27.99" maxSpeed="1.47" waitingTime="3.70"/>
    </personinfo>
    <tripinfo id="D2_1.1" depart="93.70" departLane="140483224#1_1" departPos="5.10" departPosLat="0.00" departSpeed="28.25" departDelay="0.00" arrival="251.70" arrivalLane="-145894807#0_1" arrivalPos="260.97" arrivalPosLat="0.00" arrivalSpeed="8.37" duration="158.00" routeLength="1109.85" waitingTime="61.30" waitingCount="2" stopTime="0.00" timeLoss="72.08" rerouteNo="1" devices="tripinfo_D2_1.1 routing_D2_1.1" vType="car" speedFactor="1.02" vaporized=""/>
    <personinfo id="pf_2.13" depart="234.00" type="ped" speedFactor="1.10" duration="22.00" waitingTime="0.00" timeLoss="2.18" traveltime="22.00">
        <walk depart="234.00" departPos="15.72" arrival="256.00" arrivalPos="4.00" duration="22.00" routeLength="30.33" timeLoss="2.18" maxSpeed="1.53" waitingTime="0.00"/>
    </personinfo>
    <tripinfo id="B3_1.0" depart="127.70" departLane="-361257727#0_1" departPos="8.10" departPosLat="0.00" departSpeed="8.33" departDelay="0.00" arrival="257.90" arrivalLane="-140483224#1_1" arrivalPos="64.17" arrivalPosLat="0.00" arrivalSpeed="27.73" duration="130.20" routeLength="1424.09" waitingTime="0.00" waitingCount="0" stopTime="0.00" timeLoss="11.45" rerouteNo="1" devices="tripinfo_B3_1.0 routing_B3_1.0" vType="jeep" speedFactor="1.00" vaporized=""/>
    <tripinfo id="C3_1.5" depart="156.50" departLane="440471861#0_1" departPos="5.10" departPosLat="0.00" departSpeed="24.94" departDelay="0.00" arrival="265.50" arrivalLane="-140483224#1_1" arrivalPos="64.17" arrivalPosLat="-0.00" arrivalSpeed="24.82" duration="109.00" routeLength="1053.93" waitingTime="57.40" waitingCount="1" stopTime="0.00" timeLoss="65.52" rerouteNo="1" devices="tripinfo_C3_1.5 routing_C3_1.5" vType="car" speedFactor="0.90" vaporized=""/>
    <tripinfo id="C3_1.6" depart="208.00" departLane="440471861#0_1" departPos="5.10" departPosLat="0.00" departSpeed="28.79" departDelay="0.00" arrival="266.80" arrivalLane="-140483224#1_1" arrivalPos="64.17" arrivalPosLat="-0.00" arrivalSpeed="27.35" duration="58.80" routeLength="1053.93" waitingTime="4.40" waitingCount="1" stopTime="0.00" timeLoss="21.02" rerouteNo="1" devices="tripinfo_C3_1.6 routing_C3_1.6" vType="car" speedFactor="1.04" vaporized=""/>
    <tripinfo id="D2_1.2" depart="134.80" departLane="140483224#1_1" departPos="2.30" departPosLat="0.00" departSpeed="22.58" departDelay="0.00" arrival="271.50" arrivalLane="-145894807#0_1" arrivalPos="260.97" arrivalPosLat="0.00" arrivalSpeed="6.65" duration="136.70" routeLength="1112.65" waitingTime="15.40" waitingCount="1" stopTime="0.00" timeLoss="29.11" rerouteNo="1" devices="tripinfo_D2_1.2 routing_D2_1.2" vType="motorcycle" speedFactor="0.81" vaporized=""/>
    <personinfo id="pf_2.14" depart="252.00" type="ped" speedFactor="0.83" duration="29.20" waitingTime="0.00" timeLoss="2.96" traveltime="29.20">
        <walk depart="252.00" departPos="15.72" arrival="281.20" arrivalPos="4.00" duration="29.20" routeLength="30.33" timeLoss="2.96" maxSpeed="1.16" waitingTime="0.00"/>
    </personinfo>
    <tripinfo id="D3_1.1" depart="179.60" departLane="140483224#1_1" departPos="2.30" departPosLat="0.00" departSpeed="26.57" departDelay="0.00" arrival="282.00" arrivalLane="-440471861#0_2" arrivalPos="31.49" arrivalPosLat="0.00" arrivalSpeed="26.41" duration="102.40" routeLength="1071.89" waitingTime="56.70" waitingCount="1" stopTime="0.00" timeLoss="60.52" rerouteNo="1" devices="tripinfo_D3_1.1 routing_D3_1.1" vType="motorcycle" speedFactor="0.96" vaporized=""/>
    <tripinfo id="D3_1.2" depart="201.70" departLane="140483224#1_2" departPos="5.10" departPosLat="0.00" departSpeed="29.75" departDelay="0.00" arrival="284.70" arrivalLane="-440471861#0_2" arrivalPos="31.49" arrivalPosLat="0.00" arrivalSpeed="29.68" duration="83.00" routeLength="1069.09" waitingTime="31.00" waitingCount="1" stopTime="0.00" timeLoss="45.68" rerouteNo="1" devices="tripinfo_D3_1.2 routing_D3_1.2" vType="car" speedFactor="1.07" vaporized=""/>
    <tripinfo id="D3_1.3" depart="206.80" departLane="140483224#1_1" departPos="2.30" departPosLat="0.00" departSpeed="25.98" departDelay="0.00" arrival="286.80" arrivalLane="-440471861#0_2" arrivalPos="31.49" arrivalPosLat="0.00" arrivalSpeed="25.78" duration="80.00" routeLength="1071.89" waitingTime="29.80" waitingCount="1" stopTime="0.00" timeLoss="37.17" rerouteNo="1" devices="tripinfo_D3_1.3 routing_D3_1.3" vType="motorcycle" speedFactor="0.94" vaporized=""/>
    <personinfo id="pf_2.15" depart="270.00" type="ped" speedFactor="1.09" duration="22.40" waitingTime="0.00" timeLoss="2.32" traveltime="22.40">
        <walk depart="270.00" departPos="15.72" arrival="292.40" arrivalPos="4.00" duration="22.40" routeLength="30.33" timeLoss="2.32" maxSpeed="1.51" waitingTime="0.00"/>
    </personinfo>
    <tripinfo id="D3_1.4" depart="212.70" departLane="140483224#1_2" departPos="8.10" departPosLat="0.00" departSpeed="27.78" departDelay="0.00" arrival="298.20" arrivalLane="-440471861#0_2" arrivalPos="31.49" arrivalPosLat="0.00" arrivalSpeed="27.76" duration="85.50" routeLength="1066.09" waitingTime="20.60" waitingCount="2" stopTime="0.00" timeLoss="45.62" rerouteNo="1" devices="tripinfo_D3_1.4 routing_D3_1.4" vType="jeep" speedFactor="1.00" vaporized=""/>
    <tripinfo id="D3_1.5" depart="231.30" departLane="140483224#1_1" departPos="7.20" departPosLat="0.00" departSpeed="24.69" departDelay="0.00" arrival="300.50" arrivalLane="-440471861#0_2" arrivalPos="31.49" arrivalPosLat="0.00" arrivalSpeed="24.63" duration="69.20" routeLength="1066.99" waitingTime="0.10" waitingCount="1" stopTime="0.00" timeLoss="24.26" rerouteNo="1" devices="tripinfo_D3_1.5 routing_D3_1.5" vType="truck" speedFactor="0.89" vaporized=""/>
    <tripinfo id="C1_1.8" depart="227.40" departLane="440471861#0_1" departPos="5.10" departPosLat="0.00" departSpeed="26.26" departDelay="0.00" arrival="301.40" arrivalLane="-793339796#2_2" arrivalPos="83.13" arrivalPosLat="0.00" arrivalSpeed="26.23" duration="74.00" routeLength="1654.03" waitingTime="0.00" waitingCount="0" stopTime="0.00" timeLoss="9.87" rerouteNo="1" devices="tripinfo_C1_1.8 routing_C1_1.8" vType="car" speedFactor="0.95" vaporized=""/>
    <tripinfo id="A2_1.6" depart="261.90" departLane="-793339796#2_1" departPos="5.10" departPosLat="0.00" departSpeed="31.10" departDelay="0.00" arrival="302.10" arrivalLane="-440471861#0_1" arrivalPos="31.49" arrivalPosLat="-0.00" arrivalSpeed="29.63" duration="40.20" routeLength="1081.89" waitingTime="0.00" waitingCount="0" stopTime="0.00" timeLoss="5.39" rerouteNo="1" devices="tripinfo_A2_1.6 routing_A2_1.6" vType="car" speedFactor="1.12" vaporized=""/>