<?xml version="1.0" encoding="UTF-8"?>

<!-- generated on 2026-02-15 23:41:00 by Eclipse SUMO sumo Version 1.24.0
<sumoConfiguration xmlns:xsi="http://www.w3.org/2001/XMLSchema-instance" xsi:noNamespaceSchemaLocation="http://sumo.dlr.de/xsd/sumoConfiguration.xsd">

    <input>
        <net-file value="Olivarez_traci\network/baseline.net.xml"/>
        <route-files value="Olivarez_traci\demand\flows_slow_traffic.rou.xml"/>
        <additional-files value="Olivarez_traci\additionals/map.poly.xml,Olivarez_traci\ additionals/detectors.add.xml"/>
    </input>

    <output>
        <tripinfo-output value="Olivarez_traci\output_A2C_Baseline\SP_A2C_Baseline_Slow_trips.xml"/>
        <statistic-output value="Olivarez_traci\output_A2C_Baseline\SP_A2C_Baseline_Slow_stats.xml"/>
    </output>

    <time>
        <begin value="0"/>
        <end value="10800"/>
        <step-length value="0.1"/>
    </time>

    <processing>
        <lateral-resolution value="0.1"/>
        <collision.action value="none"/>
        <collision.check-junctions value="false"/>
        <collision.mingap-factor value="0"/>
    </processing>

    <report>
        <no-warnings value="true"/>
    </report>

    <traci_server>
        <remote-port value="60464"/>
    </traci_server>

    <gui_only>
        <delay value="0"/>
    </gui_only>

</sumoConfiguration>
-->

<tripinfos xmlns:xsi="http://www.w3.org/2001/XMLSchema-instance" xsi:noNamespaceSchemaLocation="http://sumo.dlr.de/xsd/tripinfo_file.xsd">
    <personinfo id="pf_2.0" depart="0.00" type="ped" speedFactor="0.88" duration="28.10" waitingTime="0.00" timeLoss="2.92" traveltime="28.10">
        <walk depart="0.00" departPos="15.09" arrival="28.10" arrivalPos="3.44" duration="28.10" routeLength="30.72" timeLoss="2.92" maxSpeed="1.22" waitingTime="0.00"/>
    </personinfo>
    <personinfo id="pf_2.1" depart="22.50" type="ped" speedFactor="1.08" duration="28.90" waitingTime="6.10" timeLoss="8.37" traveltime="28.90">
        <walk depart="22.50" departPos="15.09" arrival="51.40" arrivalPos="3.44" duration="28.90" routeLength="30.72" timeLoss="8.37" maxSpeed="1.50" waitingTime="6.10"/>
    </personinfo>
    <tripinfo id="D3_1.0" depart="15.30" departLane="140483224#1_2" departPos="5.10" departPosLat="0.00" departSpeed="28.45" departDelay="0.00" arrival="59.30" arrivalLane="-440471861#0_2" arrivalPos="31.52" arrivalPosLat="0.00" arrivalSpeed="28.34" duration="44.00" routeLength="1067.97" waitingTime="0.00" waitingCount="0" stopTime="0.00" timeLoss="4.89" rerouteNo="1" devices="tripinfo_D3_1.0 routing_D3_1.0" vType="car" speedFactor="1.02" vaporized=""/>
    <personinfo id="pf_2.2" depart="45.00" type="ped" speedFactor="0.99" duration="24.60" waitingTime="0.00" timeLoss="2.32" traveltime="24.60">
        <walk depart="45.00" departPos="15.09" arrival="69.60" arrivalPos="3.44" duration="24.60" routeLength="30.72" timeLoss="2.32" maxSpeed="1.38" waitingTime="0.00"/>
    </personinfo>
    <tripinfo id="A2_1.0" depart="8.90" departLane="-793339796#2_1" departPos="5.10" departPosLat="0.00" departSpeed="29.35" departDelay="0.00" arrival="71.00" arrivalLane="-440471861#0_1" arrivalPos="31.52" arrivalPosLat="0.00" arrivalSpeed="29.30" duration="62.10" routeLength="1081.27" waitingTime="14.80" waitingCount="1" stopTime="0.00" timeLoss="25.24" rerouteNo="1" devices="tripinfo_A2_1.0 routing_A2_1.0" vType="car" speedFactor="1.06" vaporized=""/>
    <tripinfo id="D1_1.0" depart="1.20" departLane="140483224#1_1" departPos="5.10" departPosLat="0.00" departSpeed="27.86" departDelay="0.00" arrival="75.80" arrivalLane="-793339796#2_2" arrivalPos="82.50" arrivalPosLat="0.00" arrivalSpeed="27.84" duration="74.60" routeLength="1648.38" waitingTime="0.00" waitingCount="0" stopTime="0.00" timeLoss="13.13" rerouteNo="1" devices="tripinfo_D1_1.0 routing_D1_1.0" vType="car" speedFactor="1.00" vaporized=""/>
    <tripinfo id="A2_1.1" depart="16.40" departLane="-793339796#2_1" departPos="8.10" departPosLat="0.00" departSpeed="27.78" departDelay="0.00" arrival="80.00" arrivalLane="-440471861#0_2" arrivalPos="31.52" arrivalPosLat="0.00" arrivalSpeed="27.77" duration="63.60" routeLength="1078.27" waitingTime="5.50" waitingCount="1" stopTime="0.00" timeLoss="24.70" rerouteNo="1" devices="tripinfo_A2_1.1 routing_A2_1.1" vType="jeep" speedFactor="1.00" vaporized=""/>
    <personinfo id="pf_2.3" depart="67.50" type="ped" speedFactor="1.13" duration="29.00" waitingTime="7.20" timeLoss="9.37" traveltime="29.00">
        <walk depart="67.50" departPos="15.09" arrival="96.50" arrivalPos="3.44" duration="29.00" routeLength="30.72" timeLoss="9.37" maxSpeed="1.57" waitingTime="7.20"/>
    </personinfo>
    <tripinfo id="C3_1.0" depart="8.60" departLane="440471861#0_1" departPos="5.10" departPosLat="0.00" departSpeed="28.99" departDelay="0.00" arrival="106.30" arrivalLane="-140483224#1_2" arrivalPos="64.04" arrivalPosLat="0.00" arrivalSpeed="28.91" duration="97.70" routeLength="1052.78" waitingTime="50.80" waitingCount="1" stopTime="0.00" timeLoss="60.06" rerouteNo="1" devices="tripinfo_C3_1.0 routing_C3_1.0" vType="car" speedFactor="1.04" vaporized=""/>
    <tripinfo id="C3_1.1" depart="22.80" departLane="440471861#0_1" departPos="2.30" departPosLat="0.00" departSpeed="25.10" departDelay="0.00" arrival="108.30" arrivalLane="-140483224#1_1" arrivalPos="64.04" arrivalPosLat="-0.00" arrivalSpeed="25.08" duration="85.50" routeLength="1055.58" waitingTime="32.00" waitingCount="1" stopTime="0.00" timeLoss="41.90" rerouteNo="1" devices="tripinfo_C3_1.1 routing_C3_1.1" vType="motorcycle" speedFactor="0.90" vaporized=""/>
    <tripinfo id="C3_1.2" depart="47.20" departLane="440471861#0_1" departPos="5.10" departPosLat="0.00" departSpeed="30.59" departDelay="0.00" arrival="108.60" arrivalLane="-140483224#1_1" arrivalPos="64.04" arrivalPosLat="1.38" arrivalSpeed="30.55" duration="61.40" routeLength="1052.78" waitingTime="9.50" waitingCount="1" stopTime="0.00" timeLoss="25.74" rerouteNo="1" devices="tripinfo_C3_1.2 routing_C3_1.2" vType="car" speedFactor="1.10" vaporized=""/>
    <personinfo id="pf_2.4" depart="90.00" type="ped" speedFactor="1.05" duration="23.30" waitingTime="0.00" timeLoss="2.27" traveltime="23.30">
        <walk depart="90.00" departPos="15.09" arrival="113.30" arrivalPos="3.44" duration="23.30" routeLength="30.72" timeLoss="2.27" maxSpeed="1.46" waitingTime="0.00"/>
    </personinfo>
    <tripinfo id="C1_1.0" depart="35.30" departLane="440471861#0_1" departPos="5.10" departPosLat="0.00" departSpeed="25.38" departDelay="0.00" arrival="120.30" arrivalLane="-793339796#2_2" arrivalPos="82.50" arrivalPosLat="0.00" arrivalSpeed="25.36" duration="85.00" routeLength="1653.99" waitingTime="0.00" waitingCount="0" stopTime="0.00" timeLoss="18.56" rerouteNo="1" devices="tripinfo_C1_1.0 routing_C1_1.0" vType="car" speedFactor="0.91" vaporized=""/>
    <personinfo id="pf_4.0" depart="0.00" type="ped" speedFactor="1.03" duration="121.00" waitingTime="5.90" timeLoss="17.14" traveltime="121.00">
        <walk depart="0.00" departPos="25.00" arrival="55.90" arrivalPos="29.11" duration="55.90" routeLength="72.15" timeLoss="5.39" maxSpeed="1.43" waitingTime="0.00"/>
        <walk depart="55.90" departPos="29.11" arrival="121.00" arrivalPos="29.05" duration="65.10" routeLength="76.20" timeLoss="11.75" maxSpeed="1.43" waitingTime="5.90"/>
    </personinfo>
    <tripinfo id="C2_1.0" depart="40.30" departLane="440471861#0_2" departPos="12.10" departPosLat="0.00" departSpeed="27.78" departDelay="0.00" arrival="127.90" arrivalLane="-145894807#0_1" arrivalPos="260.95" arrivalPosLat="0.00" arrivalSpeed="8.30" duration="87.60" routeLength="1075.06" waitingTime="0.00" waitingCount="0" stopTime="0.00" timeLoss="2.60" rerouteNo="1" devices="tripinfo_C2_1.0 routing_C2_1.0" vType="bus" speedFactor="1.00" vaporized=""/>
    <tripinfo id="C2_1.1" depart="54.60" departLane="440471861#0_2" departPos="5.10" departPosLat="0.00" departSpeed="34.31" departDelay="0.00" arrival="130.30" arrivalLane="-145894807#0_1" arrivalPos="260.95" arrivalPosLat="0.00" arrivalSpeed="10.27" duration="75.70" routeLength="1082.06" waitingTime="0.00" waitingCount="0" stopTime="0.00" timeLoss="6.60" rerouteNo="1" devices="tripinfo_C2_1.1 routing_C2_1.1" vType="car" speedFactor="1.24" vaporized=""/>
    <tripinfo id="D1_1.1" depart="47.90" departLane="140483224#1_1" departPos="7.20" departPosLat="0.00" departSpeed="26.91" departDelay="0.00" arrival="133.70" arrivalLane="-793339796#2_2" arrivalPos="82.50" arrivalPosLat="0.00" arrivalSpeed="25.37" duration="85.80" routeLength="1646.28" waitingTime="0.00" waitingCount="0" stopTime="0.00" timeLoss="22.19" rerouteNo="1" devices="tripinfo_D1_1.1 routing_D1_1.1" vType="truck" speedFactor="0.97" vaporized=""/>
    <personinfo id="pf_4.1" depart="22.50" type="ped" speedFactor="1.04" duration="114.90" waitingTime="0.90" timeLoss="12.57" traveltime="114.90">
        <walk depart="22.50" departPos="25.00" arrival="78.70" arrivalPos="29.11" duration="56.20" routeLength="72.15" timeLoss="6.43" maxSpeed="1.45" waitingTime="0.90"/>
        <walk depart="78.70" departPos="29.11" arrival="137.40" arrivalPos="29.05" duration="58.70" routeLength="76.20" timeLoss="6.14" maxSpeed="1.45" waitingTime="0.00"/>
    </personinfo>
    <tripinfo id="C1_1.1" depart="57.10" departLane="440471861#0_1" departPos="8.10" departPosLat="0.00" departSpeed="27.78" departDelay="0.00" arrival="138.00" arrivalLane="-793339796#2_2" arrivalPos="82.50" arrivalPosLat="0.00" arrivalSpeed="24.62" duration="80.90" routeLength="1650.99" waitingTime="0.00" waitingCount="0" stopTime="0.00" timeLoss="20.39" rerouteNo="1" devices="tripinfo_C1_1.1 routing_C1_1.1" vType="jeep" speedFactor="1.00" vaporized=""/>
    <personinfo id="pf_2.5" depart="112.50" type="ped" speedFactor="0.91" duration="26.90" waitingTime="0.00" timeLoss="2.71" traveltime="26.90">
        <walk depart="112.50" departPos="15.09" arrival="139.40" arrivalPos="3.44" duration="26.90" routeLength="30.72" timeLoss="2.71" maxSpeed="1.27" waitingTime="0.00"/>
    </personinfo>
    <tripinfo id="B2_1.0" depart="13.90" departLane="-361257727#0_1" departPos="5.10" departPosLat="0.00" departSpeed="7.98" departDelay="0.00" arrival="141.50" arrivalLane="-440471861#0_1" arrivalPos="31.52" arrivalPosLat="-0.00" arrivalSpeed="26.60" duration="127.60" routeLength="1397.68" waitingTime="0.00" waitingCount="0" stopTime="0.00" timeLoss="5.52" rerouteNo="1" devices="tripinfo_B2_1.0 routing_B2_1.0" vType="car" speedFactor="0.96" vaporized=""/>
    <tripinfo id="C1_1.2" depart="63.70" departLane="440471861#0_1" departPos="2.30" departPosLat="0.00" departSpeed="25.73" departDelay="0.00" arrival="144.00" arrivalLane="-793339796#2_2" arrivalPos="82.50" arrivalPosLat="0.00" arrivalSpeed="25.68" duration="80.30" routeLength="1656.79" waitingTime="0.00" waitingCount="0" stopTime="0.00" timeLoss="14.64" rerouteNo="1" devices="tripinfo_C1_1.2 routing_C1_1.2" vType="tricycle" speedFactor="0.93" vaporized=""/>
    <personinfo id="pf_4.2" depart="45.00" type="ped" speedFactor="1.08" duration="109.90" waitingTime="0.00" timeLoss="11.01" traveltime="109.90">
        <walk depart="45.00" departPos="25.00" arrival="98.40" arrivalPos="29.11" duration="53.40" routeLength="72.15" timeLoss="5.31" maxSpeed="1.50" waitingTime="0.00"/>
        <walk depart="98.40" departPos="29.11" arrival="154.90" arrivalPos="29.05" duration="56.50" routeLength="76.20" timeLoss="5.71" maxSpeed="1.50" waitingTime="0.00"/>
    </personinfo>
    <personinfo id="pf_2.6" depart="135.00" type="ped" speedFactor="1.00" duration="25.40" waitingTime="1.00" timeLoss="3.38" traveltime="25.40">
        <walk depart="135.00" departPos="15.09" arrival="160.40" arrivalPos="3.44" duration="25.40" routeLength="30.72" timeLoss="3.38" maxSpeed="1.39" waitingTime="1.00"/>
    </personinfo>
    <tripinfo id="C1_1.3" depart="82.10" departLane="440471861#0_1" departPos="5.10" departPosLat="0.00" departSpeed="24.54" departDelay="0.00" arrival="164.00" arrivalLane="-793339796#2_2" arrivalPos="82.50" arrivalPosLat="0.00" arrivalSpeed="24.48" duration="81.90" routeLength="1653.99" waitingTime="0.00" waitingCount="0" stopTime="0.00" timeLoss="13.20" rerouteNo="1" devices="tripinfo_C1_1.3 routing_C1_1.3" vType="car" speedFactor="0.88" vaporized=""/>
    <tripinfo id="D1_1.3" depart="92.30" departLane="140483224#1_1" departPos="5.10" departPosLat="0.00" departSpeed="33.02" departDelay="0.00" arrival="166.30" arrivalLane="-793339796#2_2" arrivalPos="82.50" arrivalPosLat="0.00" arrivalSpeed="32.94" duration="74.00" routeLength="1648.38" waitingTime="0.00" waitingCount="0" stopTime="0.00" timeLoss="22.02" rerouteNo="1" devices="tripinfo_D1_1.3 routing_D1_1.3" vType="car" speedFactor="1.19" vaporized=""/>
    <tripinfo id="A2_1.2" depart="41.40" departLane="-793339796#2_1" departPos="5.10" departPosLat="0.00" departSpeed="28.78" departDelay="0.00" arrival="172.20" arrivalLane="-440471861#0_1" arrivalPos="31.52" arrivalPosLat="0.00" arrivalSpeed="28.71" duration="130.80" routeLength="1081.27" waitingTime="82.00" waitingCount="1" stopTime="0.00" timeLoss="93.20" rerouteNo="1" devices="tripinfo_A2_1.2 routing_A2_1.2" vType="car" speedFactor="1.04" vaporized=""/>
    <tripinfo id="D2_1.0" depart="67.30" departLane="140483224#1_1" departPos="5.10" departPosLat="0.00" departSpeed="29.37" departDelay="0.00" arrival="172.60" arrivalLane="-145894807#0_1" arrivalPos="260.95" arrivalPosLat="0.00" arrivalSpeed="8.72" duration="105.30" routeLength="1092.76" waitingTime="17.00" waitingCount="1" stopTime="0.00" timeLoss="24.60" rerouteNo="1" devices="tripinfo_D2_1.0 routing_D2_1.0" vType="car" speedFactor="1.06" vaporized=""/>
    <tripinfo id="A3_1.0" depart="31.50" departLane="-793339796#2_2" departPos="5.10" departPosLat="0.00" departSpeed="27.03" departDelay="0.50" arrival="172.90" arrivalLane="-140483224#1_2" arrivalPos="64.04" arrivalPosLat="0.00" arrivalSpeed="26.93" duration="141.40" routeLength="1080.94" waitingTime="91.20" waitingCount="1" stopTime="0.00" timeLoss="99.84" rerouteNo="1" devices="tripinfo_A3_1.0 routing_A3_1.0" vType="car" speedFactor="0.97" vaporized=""/>
    <tripinfo id="D1_1.2" depart="74.50" departLane="140483224#1_1" departPos="7.20" departPosLat="0.00" departSpeed="27.47" departDelay="0.00" arrival="176.70" arrivalLane="-793339796#2_2" arrivalPos="82.50" arrivalPosLat="0.00" arrivalSpeed="25.56" duration="102.20" routeLength="1646.28" waitingTime="8.80" waitingCount="1" stopTime="0.00" timeLoss="39.81" rerouteNo="1" devices="tripinfo_D1_1.2 routing_D1_1.2" vType="truck" speedFactor="0.99" vaporized=""/>
    <tripinfo id="A2_1.3" depart="54.40" departLane="-793339796#2_1" departPos="7.20" departPosLat="0.00" departSpeed="25.39" departDelay="0.30" arrival="181.00" arrivalLane="-440471861#0_1" arrivalPos="31.52" arrivalPosLat="0.00" arrivalSpeed="25.34" duration="126.60" routeLength="1079.17" waitingTime="63.70" waitingCount="1" stopTime="0.00" timeLoss="84.01" rerouteNo="1" devices="tripinfo_A2_1.3 routing_A2_1.3" vType="truck" speedFactor="0.91" vaporized=""/>
    <tripinfo id="A3_1.1" depart="61.00" departLane="-793339796#2_1" departPos="12.10" departPosLat="0.00" departSpeed="27.78" departDelay="0.00" arrival="181.10" arrivalLane="-140483224#1_2" arrivalPos="64.04" arrivalPosLat="0.00" arrivalSpeed="27.77" duration="120.10" routeLength="1073.94" waitingTime="58.70" waitingCount="1" stopTime="0.00" timeLoss="79.89" rerouteNo="1" devices="tripinfo_A3_1.1 routing_A3_1.1" vType="bus" speedFactor="1.00" vaporized=""/>
    <tripinfo id="B2_1.1" depart="62.00" departLane="-361257727#0_1" departPos="8.10" departPosLat="0.00" departSpeed="8.33" departDelay="0.00" arrival="189.50" arrivalLane="-440471861#0_1" arrivalPos="31.52" arrivalPosLat="-0.00" arrivalSpeed="27.73" duration="127.50" routeLength="1394.68" waitingTime="0.00" waitingCount="0" stopTime="0.00" timeLoss="10.86" rerouteNo="1" devices="tripinfo_B2_1.1 routing_B2_1.1" vType="jeep" speedFactor="1.00" vaporized=""/>
    <personinfo id="pf_2.7" depart="157.50" type="ped" speedFactor="1.03" duration="34.90" waitingTime="10.90" timeLoss="13.42" traveltime="34.90">
        <walk depart="157.50" departPos="15.09" arrival="192.40" arrivalPos="3.44" duration="34.90" routeLength="30.72" timeLoss="13.42" maxSpeed="1.43" waitingTime="10.90"/>
    </personinfo>
    <tripinfo id="D2_1.1" depart="93.70" departLane="140483224#1_1" departPos="5.10" departPosLat="0.00" departSpeed="24.64" departDelay="0.00" arrival="192.70" arrivalLane="-145894807#0_1" arrivalPos="260.95" arrivalPosLat="0.00" arrivalSpeed="7.31" duration="99.00" routeLength="1092.76" waitingTime="0.00" waitingCount="0" stopTime="0.00" timeLoss="2.79" rerouteNo="1" devices="tripinfo_D2_1.1 routing_D2_1.1" vType="car" speedFactor="0.89" vaporized=""/>
    <tripinfo id="D1_1.4" depart="112.20" departLane="140483224#1_1" departPos="8.10" departPosLat="0.00" departSpeed="27.78" departDelay="0.00" arrival="197.60" arrivalLane="-793339796#2_2" arrivalPos="82.50" arrivalPosLat="0.00" arrivalSpeed="24.69" duration="85.40" routeLength="1645.38" waitingTime="0.00" waitingCount="0" stopTime="0.00" timeLoss="23.88" rerouteNo="1" devices="tripinfo_D1_1.4 routing_D1_1.4" vType="jeep" speedFactor="1.00" vaporized=""/>
    <personinfo id="pf_4.3" depart="67.50" type="ped" speedFactor="0.99" duration="132.60" waitingTime="13.20" timeLoss="25.03" traveltime="132.60">
        <walk depart="67.50" departPos="25.00" arrival="132.70" arrivalPos="29.11" duration="65.20" routeLength="72.15" timeLoss="12.88" maxSpeed="1.38" waitingTime="7.00"/>
        <walk depart="132.70" departPos="29.11" arrival="200.10" arrivalPos="29.05" duration="67.40" routeLength="76.20" timeLoss="12.14" maxSpeed="1.38" waitingTime="6.20"/>
    </personinfo>
    <tripinfo id="D1_1.5" depart="117.10" departLane="140483224#1_1" departPos="8.10" departPosLat="0.00" departSpeed="27.78" departDelay="0.00" arrival="203.70" arrivalLane="-793339796#2_2" arrivalPos="82.50" arrivalPosLat="0.00" arrivalSpeed="24.44" duration="86.60" routeLength="1645.38" waitingTime="0.00" waitingCount="0" stopTime="0.00" timeLoss="25.09" rerouteNo="1" devices="tripinfo_D1_1.5 routing_D1_1.5" vType="jeep" speedFactor="1.00" vaporized=""/>
    <personinfo id="pf_2.8" depart="180.00" type="ped" speedFactor="0.98" duration="25.20" waitingTime="0.00" timeLoss="2.72" traveltime="25.20">
        <walk depart="180.00" departPos="15.09" arrival="205.20" arrivalPos="3.44" duration="25.20" routeLength="30.72" timeLoss="2.72" maxSpeed="1.37" waitingTime="0.00"/>
    </personinfo>
    <personinfo id="pf_4.4" depart="90.00" type="ped" speedFactor="0.98" duration="124.30" waitingTime="3.40" timeLoss="15.53" traveltime="124.30">
        <walk depart="90.00" departPos="25.00" arrival="148.60" arrivalPos="29.11" duration="58.60" routeLength="72.15" timeLoss="5.70" maxSpeed="1.36" waitingTime="0.00"/>
        <walk depart="148.60" departPos="29.11" arrival="214.30" arrivalPos="29.05" duration="65.70" routeLength="76.20" timeLoss="9.83" maxSpeed="1.36" waitingTime="3.40"/>
    </personinfo>
    <tripinfo id="C3_1.3" depart="87.10" departLane="440471861#0_1" departPos="7.20" departPosLat="0.00" departSpeed="29.74" departDelay="0.00" arrival="219.30" arrivalLane="-140483224#1_2" arrivalPos="64.04" arrivalPosLat="0.00" arrivalSpeed="29.70" duration="132.20" routeLength="1050.68" waitingTime="77.70" waitingCount="1" stopTime="0.00" timeLoss="95.57" rerouteNo="1" devices="tripinfo_C3_1.3 routing_C3_1.3" vType="truck" speedFactor="1.07" vaporized=""/>
    <tripinfo id="C1_1.4" depart="125.70" departLane="440471861#0_1" departPos="5.10" departPosLat="0.00" departSpeed="28.41" departDelay="0.00" arrival="221.30" arrivalLane="-793339796#2_1" arrivalPos="82.50" arrivalPosLat="-0.00" arrivalSpeed="28.41" duration="95.60" routeLength="1653.99" waitingTime="13.20" waitingCount="1" stopTime="0.00" timeLoss="36.27" rerouteNo="1" devices="tripinfo_C1_1.4 routing_C1_1.4" vType="car" speedFactor="1.02" vaporized=""/>
    <tripinfo id="C3_1.4" depart="109.30" departLane="440471861#0_1" departPos="8.10" departPosLat="0.00" departSpeed="27.78" departDelay="0.00" arrival="221.80" arrivalLane="-140483224#1_1" arrivalPos="64.04" arrivalPosLat="-0.00" arrivalSpeed="27.74" duration="112.50" routeLength="1049.78" waitingTime="51.50" waitingCount="1" stopTime="0.00" timeLoss="73.36" rerouteNo="1" devices="tripinfo_C3_1.4 routing_C3_1.4" vType="jeep" speedFactor="1.00" vaporized=""/>
    <tripinfo id="C3_1.5" depart="156.50" departLane="440471861#0_1" departPos="8.10" departPosLat="0.00" departSpeed="27.78" departDelay="0.00" arrival="223.10" arrivalLane="-140483224#1_2" arrivalPos="64.04" arrivalPosLat="0.00" arrivalSpeed="27.73" duration="66.60" routeLength="1049.78" waitingTime="5.10" waitingCount="1" stopTime="0.00" timeLoss="27.34" rerouteNo="1" devices="tripinfo_C3_1.5 routing_C3_1.5" vType="jeep" speedFactor="1.00" vaporized=""/>
    <personinfo id="pf_2.9" depart="202.50" type="ped" speedFactor="0.94" duration="26.10" waitingTime="0.00" timeLoss="2.57" traveltime="26.10">
        <walk depart="202.50" departPos="15.09" arrival="228.60" arrivalPos="3.44" duration="26.10" routeLength="30.72" timeLoss="2.57" maxSpeed="1.31" waitingTime="0.00"/>
    </personinfo>
    <tripinfo id="C1_1.5" depart="131.40" departLane="440471861#0_1" departPos="12.10" departPosLat="0.00" departSpeed="27.78" departDelay="0.00" arrival="233.70" arrivalLane="-793339796#2_2" arrivalPos="82.50" arrivalPosLat="0.00" arrivalSpeed="24.47" duration="102.30" routeLength="1646.99" waitingTime="1.30" waitingCount="1" stopTime="0.00" timeLoss="41.81" rerouteNo="1" devices="tripinfo_C1_1.5 routing_C1_1.5" vType="bus" speedFactor="1.00" vaporized=""/>
    <personinfo id="pf_1.0" depart="0.00" type="ped" speedFactor="1.06" duration="235.20" waitingTime="0.00" timeLoss="23.50" traveltime="235.20">
        <walk depart="0.00" departPos="25.00" arrival="235.20" arrivalPos="3.44" duration="235.20" routeLength="311.67" timeLoss="23.50" maxSpeed="1.47" waitingTime="0.00"/>
    </personinfo>
    <personinfo id="pf_4.5" depart="112.50" type="ped" speedFactor="1.08" duration="123.20" waitingTime="13.90" timeLoss="24.64" traveltime="123.20">
        <walk depart="112.50" departPos="25.00" arrival="169.90" arrivalPos="29.11" duration="57.40" routeLength="72.15" timeLoss="9.47" maxSpeed="1.51" waitingTime="4.30"/>
        <walk depart="169.90" departPos="29.11" arrival="235.70" arrivalPos="29.05" duration="65.80" routeLength="76.20" timeLoss="15.17" maxSpeed="1.51" waitingTime="9.60"/>
    </personinfo>
    <tripinfo id="B1_1.0" depart="75.60" departLane="-361257727#0_1" departPos="5.10" departPosLat="0.00" departSpeed="8.37" departDelay="0.00" arrival="237.90" arrivalLane="-793339796#2_1" arrivalPos="82.50" arrivalPosLat="-0.00" arrivalSpeed="27.82" duration="162.30" routeLength="1915.44" waitingTime="3.00" waitingCount="1" stopTime="0.00" timeLoss="28.32" rerouteNo="1" devices="tripinfo_B1_1.0 routing_B1_1.0" vType="car" speedFactor="1.00" vaporized=""/>
    <tripinfo id="C1_1.6" depart="142.00" departLane="440471861#0_1" departPos="7.20" departPosLat="0.00" departSpeed="24.83" departDelay="0.00" arrival="238.20" arrivalLane="-793339796#2_2" arrivalPos="82.50" arrivalPosLat="0.00" arrivalSpeed="24.79" duration="96.20" routeLength="1651.89" waitingTime="0.00" waitingCount="0" stopTime="0.00" timeLoss="28.37" rerouteNo="1" devices="tripinfo_C1_1.6 routing_C1_1.6" vType="truck" speedFactor="0.89" vaporized=""/>
    <tripinfo id="C1_1.7" depart="160.50" departLane="440471861#0_1" departPos="5.10" departPosLat="0.00" departSpeed="30.21" departDelay="0.00" arrival="239.70" arrivalLane="-793339796#2_2" arrivalPos="82.50" arrivalPosLat="0.00" arrivalSpeed="28.68" duration="79.20" routeLength="1653.99" waitingTime="0.00" waitingCount="0" stopTime="0.00" timeLoss="23.38" rerouteNo="1" devices="tripinfo_C1_1.7 routing_C1_1.7" vType="car" speedFactor="1.09" vaporized=""/>
    <personinfo id="pf_4.6" depart="135.00" type="ped" speedFactor="1.24" duration="107.50" waitingTime="11.70" timeLoss="21.44" traveltime="107.50">
        <walk depart="135.00" departPos="25.00" arrival="193.20" arrivalPos="29.11" duration="58.20" routeLength="72.15" timeLoss="16.34" maxSpeed="1.72" waitingTime="11.70"/>
        <walk depart="193.20" departPos="29.11" arrival="242.50" arrivalPos="29.05" duration="49.30" routeLength="76.20" timeLoss="5.10" maxSpeed="1.72" waitingTime="0.00"/>
    </personinfo>
    <personinfo id="pf_2.10" depart="225.00" type="ped" speedFactor="1.09" duration="36.60" waitingTime="14.00" timeLoss="16.25" traveltime="36.60">
        <walk depart="225.00" departPos="15.09" arrival="261.60" arrivalPos="3.44" duration="36.60" routeLength="30.72" timeLoss="16.25" maxSpeed="1.51" waitingTime="14.00"/>
    </personinfo>
    <tripinfo id="D3_1.1" depart="179.60" departLane="140483224#1_2" departPos="5.10" departPosLat="0.00" departSpeed="29.50" departDelay="0.00" arrival="262.10" arrivalLane="-440471861#0_2" arrivalPos="31.52" arrivalPosLat="0.00" arrivalSpeed="29.43" duration="82.50" routeLength="1067.97" waitingTime="35.50" waitingCount="1" stopTime="0.00" timeLoss="44.87" rerouteNo="1" devices="tripinfo_D3_1.1 routing_D3_1.1" vType="car" speedFactor="1.06" vaporized=""/>
    <tripinfo id="B2_1.2" depart="129.20" departLane="-361257727#0_1" departPos="5.10" departPosLat="0.00" departSpeed="7.02" departDelay="0.00" arrival="264.40" arrivalLane="-440471861#0_1" arrivalPos="31.52" arrivalPosLat="0.00" arrivalSpeed="26.70" duration="135.20" routeLength="1397.68" waitingTime="1.50" waitingCount="1" stopTime="0.00" timeLoss="13.99" rerouteNo="1" devices="tripinfo_B2_1.2 routing_B2_1.2" vType="car" speedFactor="0.97" vaporized=""/>
    <tripinfo id="D3_1.2" depart="201.70" departLane="140483224#1_2" departPos="5.10" departPosLat="0.00" departSpeed="25.75" departDelay="0.00" arrival="265.90" arrivalLane="-440471861#0_2" arrivalPos="31.52" arrivalPosLat="0.00" arrivalSpeed="25.70" duration="64.20" routeLength="1067.97" waitingTime="11.70" waitingCount="1" stopTime="0.00" timeLoss="21.06" rerouteNo="1" devices="tripinfo_D3_1.2 routing_D3_1.2" vType="car" speedFactor="0.93" vaporized=""/>
    <personinfo id="pf_4.7" depart="157.50" type="ped" speedFactor="1.06" duration="111.70" waitingTime="0.00" timeLoss="11.01" traveltime="111.70">
        <walk depart="157.50" departPos="25.00" arrival="211.90" arrivalPos="29.11" duration="54.40" routeLength="72.15" timeLoss="5.43" maxSpeed="1.47" waitingTime="0.00"/>
        <walk depart="211.90" departPos="29.11" arrival="269.20" arrivalPos="29.05" duration="57.30" routeLength="76.20" timeLoss="5.58" maxSpeed="1.47" waitingTime="0.00"/>
    </personinfo>
    <tripinfo id="A3_1.2" depart="146.70" departLane="-793339796#2_2" departPos="2.30" departPosLat="0.00" departSpeed="31.39" departDelay="19.60" arrival="274.30" arrivalLane="-140483224#1_2" arrivalPos="64.04" arrivalPosLat="0.00" arrivalSpeed="31.29" duration="127.60" routeLength="1083.74" waitingTime="81.10" waitingCount="1" stopTime="0.00" timeLoss="91.69" rerouteNo="1" devices="tripinfo_A3_1.2 routing_A3_1.2" vType="tricycle" speedFactor="1.13" vaporized=""/>
    <tripinfo id="A2_1.4" depart="146.70" departLane="-793339796#2_1" departPos="5.10" departPosLat="0.00" departSpeed="24.79" departDelay="20.90" arrival="274.70" arrivalLane="-440471861#0_1" arrivalPos="31.52" arrivalPosLat="0.00" arrivalSpeed="24.71" duration="128.00" routeLength="1081.27" waitingTime="75.10" waitingCount="1" stopTime="0.00" timeLoss="84.32" rerouteNo="1" devices="tripinfo_A2_1.4 routing_A2_1.4" vType="car" speedFactor="0.89" vaporized=""/>
    <tripinfo id="A2_1.5" depart="147.10" departLane="-793339796#2_1" departPos="5.10" departPosLat="0.00" departSpeed="21.06" departDelay="17.20" arrival="276.00" arrivalLane="-440471861#0_2" arrivalPos="31.52" arrivalPosLat="0.00" arrivalSpeed="26.55" duration="128.90" routeLength="1081.27" waitingTime="71.10" waitingCount="1" stopTime="0.00" timeLoss="88.15" rerouteNo="1" devices="tripinfo_A2_1.5 routing_A2_1.5" vType="car" speedFactor="0.96" vaporized=""/>
    <tripinfo id="B3_1.0" depart="127.70" departLane="-361257727#0_1" departPos="8.10" departPosLat="0.00" departSpeed="8.33" departDelay="0.00" arrival="277.40" arrivalLane="-140483224#1_1" arrivalPos="64.04" arrivalPosLat="0.00" arrivalSpeed="27.73" duration="149.70" routeLength="1407.94" waitingTime="2.90" waitingCount="2" stopTime="0.00" timeLoss="32.82" rerouteNo="1" devices="tripinfo_B3_1.0 routing_B3_1.0" vType="jeep" speedFactor="1.00" vaporized=""/>
    <tripinfo id="B2_1.3" depart="150.30" departLane="-361257727#0_1" departPos="12.10" departPosLat="0.00" departSpeed="8.33" departDelay="0.00" arrival="279.70" arrivalLane="-440471861#0_1" arrivalPos="31.52" arrivalPosLat="0.00" arrivalSpeed="27.73" duration="129.40" routeLength="1390.68" waitingTime="0.00" waitingCount="0" stopTime="0.00" timeLoss="13.14" rerouteNo="1" devices="tripinfo_B2_1.3 routing_B2_1.3" vType="bus" speedFactor="1.00" vaporized=""/>
    <tripinfo id="A1_1.0" depart="188.40" departLane="-793339796#2_1" departPos="5.10" departPosLat="0.00" departSpeed="27.30" departDelay="30.50" arrival="290.30" arrivalLane="-145894807#0_1" arrivalPos="260.95" arrivalPosLat="0.00" arrivalSpeed="8.06" duration="101.90" routeLength="1056.72" waitingTime="4.90" waitingCount="1" stopTime="0.00" timeLoss="10.80" rerouteNo="1" devices="tripinfo_A1_1.0 routing_A1_1.0" vType="car" speedFactor="0.98" vaporized=""/>
    <personinfo id="pf_4.8" depart="180.00" type="ped" speedFactor="1.09" duration="113.30" waitingTime="3.90" timeLoss="15.08" traveltime="113.30">
        <walk depart="180.00" departPos="25.00" arrival="235.90" arrivalPos="29.11" duration="55.90" routeLength="72.15" timeLoss="8.13" maxSpeed="1.51" waitingTime="2.80"/>