<?xml version="1.0" encoding="UTF-8"?>

<!-- generated on 2025-11-18 13:24:48 by Eclipse SUMO sumo Version 1.24.0
<sumoConfiguration xmlns:xsi="http://www.w3.org/2001/XMLSchema-instance" xsi:noNamespaceSchemaLocation="http://sumo.dlr.de/xsd/sumoConfiguration.xsd">

    <input>
        <net-file value="Olivarez_traci\network/baseline.net.xml"/>
        <route-files value="Olivarez_traci\demand\flows_traffic_jam.rou.xml"/>
        <additional-files value="Olivarez_traci\additionals/map.poly.xml,Olivarez_traci\ additionals/detectors.add.xml"/>
    </input>

    <output>
        <tripinfo-output value="Olivarez_traci\output_A2C_Baseline\SP_A2C_Baseline_Jam_trips.xml"/>
        <statistic-output value="Olivarez_traci\output_A2C_Baseline\SP_A2C_Baseline_Jam_stats.xml"/>
    </output>

    <time>
        <begin value="0"/>
        <end value="10800"/>
        <step-length value="0.1"/>
    </time>

    <processing>
        <lateral-resolution value="0.1"/>
        <collision.action value="none"/>
        <collision.check-junctions value="false"/>
        <collision.mingap-factor value="0"/>
    </processing>

    <report>
        <no-warnings value="true"/>
    </report>

    <traci_server>
        <remote-port value="52136"/>
    </traci_server>

    <gui_only>
        <delay value="0"/>
    </gui_only>

</sumoConfiguration>
-->

<tripinfos xmlns:xsi="http://www.w3.org/2001/XMLSchema-instance" xsi:noNamespaceSchemaLocation="http://sumo.dlr.de/xsd/tripinfo_file.xsd">
    <personinfo id="pf_2.0" depart="0.00" type="ped" speedFactor="0.98" duration="24.90" waitingTime="0.00" timeLoss="2.55" traveltime="24.90">
        <walk depart="0.00" departPos="15.72" arrival="24.90" arrivalPos="4.00" duration="24.90" routeLength="30.33" timeLoss="2.55" maxSpeed="1.36" waitingTime="0.00"/>
    </personinfo>
    <personinfo id="pf_2.1" depart="9.00" type="ped" speedFactor="1.03" duration="23.50" waitingTime="0.00" timeLoss="2.34" traveltime="23.50">
        <walk depart="9.00" departPos="15.72" arrival="32.50" arrivalPos="4.00" duration="23.50" routeLength="30.33" timeLoss="2.34" maxSpeed="1.43" waitingTime="0.00"/>
    </personinfo>
    <personinfo id="pf_2.2" depart="18.00" type="ped" speedFactor="1.02" duration="23.80" waitingTime="0.00" timeLoss="2.35" traveltime="23.80">
        <walk depart="18.00" departPos="15.72" arrival="41.80" arrivalPos="4.00" duration="23.80" routeLength="30.33" timeLoss="2.35" maxSpeed="1.41" waitingTime="0.00"/>
    </personinfo>
    <personinfo id="pf_2.3" depart="27.00" type="ped" speedFactor="1.09" duration="22.40" waitingTime="0.00" timeLoss="2.36" traveltime="22.40">
        <walk depart="27.00" departPos="15.72" arrival="49.40" arrivalPos="4.00" duration="22.40" routeLength="30.33" timeLoss="2.36" maxSpeed="1.51" waitingTime="0.00"/>
    </personinfo>
    <personinfo id="pf_2.4" depart="36.00" type="ped" speedFactor="1.10" duration="22.00" waitingTime="0.00" timeLoss="2.14" traveltime="22.00">
        <walk depart="36.00" departPos="15.72" arrival="58.00" arrivalPos="4.00" duration="22.00" routeLength="30.33" timeLoss="2.14" maxSpeed="1.53" waitingTime="0.00"/>
    </personinfo>
    <tripinfo id="A2_1.0" depart="3.00" departLane="-793339796#2_1" departPos="5.10" departPosLat="0.00" departSpeed="30.27" departDelay="0.00" arrival="60.30" arrivalLane="-440471861#0_1" arrivalPos="31.49" arrivalPosLat="0.00" arrivalSpeed="30.24" duration="57.30" routeLength="1081.89" waitingTime="10.90" waitingCount="1" stopTime="0.00" timeLoss="21.55" rerouteNo="1" devices="tripinfo_A2_1.0 routing_A2_1.0" vType="car" speedFactor="1.09" vaporized=""/>
    <tripinfo id="A3_1.0" depart="15.20" departLane="-793339796#2_2" departPos="5.10" departPosLat="0.00" departSpeed="25.00" departDelay="0.00" arrival="67.80" arrivalLane="-140483224#1_2" arrivalPos="64.17" arrivalPosLat="0.00" arrivalSpeed="24.96" duration="52.60" routeLength="1081.71" waitingTime="0.00" waitingCount="0" stopTime="0.00" timeLoss="7.63" rerouteNo="1" devices="tripinfo_A3_1.0 routing_A3_1.0" vType="car" speedFactor="0.90" vaporized=""/>
    <tripinfo id="A2_1.2" depart="8.90" departLane="-793339796#2_2" departPos="8.10" departPosLat="0.00" departSpeed="27.78" departDelay="0.00" arrival="70.20" arrivalLane="-440471861#0_2" arrivalPos="31.49" arrivalPosLat="0.00" arrivalSpeed="27.74" duration="61.30" routeLength="1078.89" waitingTime="3.40" waitingCount="1" stopTime="0.00" timeLoss="22.45" rerouteNo="1" devices="tripinfo_A2_1.2 routing_A2_1.2" vType="jeep" speedFactor="1.00" vaporized=""/>
    <personinfo id="pf_2.5" depart="45.00" type="ped" speedFactor="0.95" duration="25.40" waitingTime="0.00" timeLoss="2.48" traveltime="25.40">
        <walk depart="45.00" departPos="15.72" arrival="70.40" arrivalPos="4.00" duration="25.40" routeLength="30.33" timeLoss="2.48" maxSpeed="1.32" waitingTime="0.00"/>
    </personinfo>
    <tripinfo id="A2_1.1" depart="6.90" departLane="-793339796#2_1" departPos="8.10" departPosLat="0.00" departSpeed="27.78" departDelay="0.00" arrival="70.50" arrivalLane="-440471861#0_1" arrivalPos="31.49" arrivalPosLat="0.00" arrivalSpeed="27.74" duration="63.60" routeLength="1078.89" waitingTime="1.70" waitingCount="1" stopTime="0.00" timeLoss="24.68" rerouteNo="1" devices="tripinfo_A2_1.1 routing_A2_1.1" vType="jeep" speedFactor="1.00" vaporized=""/>
    <tripinfo id="A2_1.3" depart="16.40" departLane="-793339796#2_1" departPos="5.10" departPosLat="0.00" departSpeed="28.05" departDelay="0.00" arrival="71.80" arrivalLane="-440471861#0_1" arrivalPos="31.49" arrivalPosLat="0.00" arrivalSpeed="27.93" duration="55.40" routeLength="1081.89" waitingTime="0.00" waitingCount="0" stopTime="0.00" timeLoss="16.74" rerouteNo="1" devices="tripinfo_A2_1.3 routing_A2_1.3" vType="car" speedFactor="1.01" vaporized=""/>
    <tripinfo id="A3_1.1" depart="31.00" departLane="-793339796#2_1" departPos="12.10" departPosLat="0.00" departSpeed="27.78" departDelay="0.00" arrival="78.80" arrivalLane="-140483224#1_2" arrivalPos="64.17" arrivalPosLat="0.00" arrivalSpeed="27.76" duration="47.80" routeLength="1074.71" waitingTime="0.00" waitingCount="0" stopTime="0.00" timeLoss="7.62" rerouteNo="1" devices="tripinfo_A3_1.1 routing_A3_1.1" vType="bus" speedFactor="1.00" vaporized=""/>
    <personinfo id="pf_2.6" depart="54.00" type="ped" speedFactor="0.96" duration="25.30" waitingTime="0.00" timeLoss="2.53" traveltime="25.30">
        <walk depart="54.00" departPos="15.72" arrival="79.30" arrivalPos="4.00" duration="25.30" routeLength="30.33" timeLoss="2.53" maxSpeed="1.33" waitingTime="0.00"/>
    </personinfo>
    <tripinfo id="D1_1.0" depart="1.20" departLane="140483224#1_1" departPos="2.30" departPosLat="0.00" departSpeed="23.35" departDelay="0.00" arrival="80.00" arrivalLane="-793339796#2_2" arrivalPos="83.13" arrivalPosLat="0.00" arrivalSpeed="23.19" duration="78.80" routeLength="1651.25" waitingTime="0.00" waitingCount="0" stopTime="0.00" timeLoss="5.20" rerouteNo="1" devices="tripinfo_D1_1.0 routing_D1_1.0" vType="motorcycle" speedFactor="0.84" vaporized=""/>
    <personinfo id="pf_2.7" depart="63.00" type="ped" speedFactor="0.86" duration="28.00" waitingTime="0.00" timeLoss="2.61" traveltime="28.00">
        <walk depart="63.00" departPos="15.72" arrival="91.00" arrivalPos="4.00" duration="28.00" routeLength="30.33" timeLoss="2.61" maxSpeed="1.19" waitingTime="0.00"/>
    </personinfo>
    <personinfo id="pf_2.8" depart="72.00" type="ped" speedFactor="1.01" duration="23.70" waitingTime="0.00" timeLoss="2.17" traveltime="23.70">
        <walk depart="72.00" departPos="15.72" arrival="95.70" arrivalPos="4.00" duration="23.70" routeLength="30.33" timeLoss="2.17" maxSpeed="1.41" waitingTime="0.00"/>
    </personinfo>
    <tripinfo id="C3_1.0" depart="6.90" departLane="440471861#0_1" departPos="2.30" departPosLat="0.00" departSpeed="21.48" departDelay="0.00" arrival="100.90" arrivalLane="-140483224#1_1" arrivalPos="64.17" arrivalPosLat="-0.00" arrivalSpeed="24.57" duration="94.00" routeLength="1056.73" waitingTime="44.50" waitingCount="1" stopTime="0.00" timeLoss="49.79" rerouteNo="1" devices="tripinfo_C3_1.0 routing_C3_1.0" vType="motorcycle" speedFactor="0.89" vaporized=""/>
    <tripinfo id="C3_1.2" depart="22.80" departLane="440471861#0_1" departPos="2.30" departPosLat="0.00" departSpeed="29.85" departDelay="0.00" arrival="102.50" arrivalLane="-140483224#1_1" arrivalPos="64.17" arrivalPosLat="-0.00" arrivalSpeed="29.77" duration="79.70" routeLength="1056.73" waitingTime="30.00" waitingCount="1" stopTime="0.00" timeLoss="43.21" rerouteNo="1" devices="tripinfo_C3_1.2 routing_C3_1.2" vType="motorcycle" speedFactor="1.07" vaporized=""/>
    <personinfo id="pf_2.9" depart="81.00" type="ped" speedFactor="0.99" duration="24.30" waitingTime="0.00" timeLoss="2.31" traveltime="24.30">
        <walk depart="81.00" departPos="15.72" arrival="105.30" arrivalPos="4.00" duration="24.30" routeLength="30.33" timeLoss="2.31" maxSpeed="1.38" waitingTime="0.00"/>
    </personinfo>
    <tripinfo id="C3_1.1" depart="8.60" departLane="440471861#0_1" departPos="2.30" departPosLat="0.00" departSpeed="23.68" departDelay="0.00" arrival="107.00" arrivalLane="-140483224#1_1" arrivalPos="64.17" arrivalPosLat="-0.00" arrivalSpeed="23.59" duration="98.40" routeLength="1056.73" waitingTime="39.50" waitingCount="1" stopTime="0.00" timeLoss="52.38" rerouteNo="1" devices="tripinfo_C3_1.1 routing_C3_1.1" vType="tricycle" speedFactor="0.85" vaporized=""/>
    <personinfo id="pf_2.10" depart="90.00" type="ped" speedFactor="1.10" duration="22.00" waitingTime="0.00" timeLoss="2.22" traveltime="22.00">
        <walk depart="90.00" departPos="15.72" arrival="112.00" arrivalPos="4.00" duration="22.00" routeLength="30.33" timeLoss="2.22" maxSpeed="1.53" waitingTime="0.00"/>
    </personinfo>
    <tripinfo id="C3_1.3" depart="47.20" departLane="440471861#0_1" departPos="7.20" departPosLat="0.00" departSpeed="27.14" departDelay="0.00" arrival="112.80" arrivalLane="-140483224#1_1" arrivalPos="64.17" arrivalPosLat="-0.00" arrivalSpeed="27.14" duration="65.60" routeLength="1051.83" waitingTime="3.80" waitingCount="1" stopTime="0.00" timeLoss="25.71" rerouteNo="1" devices="tripinfo_C3_1.3 routing_C3_1.3" vType="truck" speedFactor="0.98" vaporized=""/>
    <tripinfo id="C3_1.4" depart="51.90" departLane="440471861#0_1" departPos="7.20" departPosLat="0.00" departSpeed="25.35" departDelay="0.00" arrival="116.00" arrivalLane="-140483224#1_1" arrivalPos="64.17" arrivalPosLat="-0.00" arrivalSpeed="25.31" duration="64.10" routeLength="1051.83" waitingTime="0.00" waitingCount="0" stopTime="0.00" timeLoss="21.37" rerouteNo="1" devices="tripinfo_C3_1.4 routing_C3_1.4" vType="truck" speedFactor="0.91" vaporized=""/>
    <tripinfo id="C3_1.5" depart="54.60" departLane="440471861#0_1" departPos="5.10" departPosLat="0.00" departSpeed="28.57" departDelay="0.00" arrival="117.30" arrivalLane="-140483224#1_1" arrivalPos="64.17" arrivalPosLat="-0.00" arrivalSpeed="27.72" duration="62.70" routeLength="1053.93" waitingTime="0.00" waitingCount="0" stopTime="0.00" timeLoss="24.72" rerouteNo="1" devices="tripinfo_C3_1.5 routing_C3_1.5" vType="car" speedFactor="1.03" vaporized=""/>
    <tripinfo id="C1_1.1" depart="30.30" departLane="440471861#0_1" departPos="2.30" departPosLat="0.00" departSpeed="30.61" departDelay="0.00" arrival="120.60" arrivalLane="-793339796#2_2" arrivalPos="83.13" arrivalPosLat="0.00" arrivalSpeed="30.56" duration="90.30" routeLength="1656.83" waitingTime="24.70" waitingCount="1" stopTime="0.00" timeLoss="35.24" rerouteNo="1" devices="tripinfo_C1_1.1 routing_C1_1.1" vType="motorcycle" speedFactor="1.10" vaporized=""/>
    <personinfo id="pf_2.11" depart="99.00" type="ped" speedFactor="0.98" duration="24.90" waitingTime="0.00" timeLoss="2.55" traveltime="24.90">
        <walk depart="99.00" departPos="15.72" arrival="123.90" arrivalPos="4.00" duration="24.90" routeLength="30.33" timeLoss="2.55" maxSpeed="1.36" waitingTime="0.00"/>
    </personinfo>
    <tripinfo id="D3_1.0" depart="15.30" departLane="140483224#1_2" departPos="8.10" departPosLat="0.00" departSpeed="27.78" departDelay="0.00" arrival="130.10" arrivalLane="-440471861#0_2" arrivalPos="31.49" arrivalPosLat="0.00" arrivalSpeed="27.75" duration="114.80" routeLength="1066.09" waitingTime="58.10" waitingCount="1" stopTime="0.00" timeLoss="75.00" rerouteNo="1" devices="tripinfo_D3_1.0 routing_D3_1.0" vType="jeep" speedFactor="1.00" vaporized=""/>
    <tripinfo id="C1_1.0" depart="6.60" departLane="440471861#0_1" departPos="5.10" departPosLat="0.00" departSpeed="28.06" departDelay="0.00" arrival="132.10" arrivalLane="-793339796#2_2" arrivalPos="83.13" arrivalPosLat="0.00" arrivalSpeed="27.95" duration="125.50" routeLength="1654.03" waitingTime="47.20" waitingCount="1" stopTime="0.00" timeLoss="65.51" rerouteNo="1" devices="tripinfo_C1_1.0 routing_C1_1.0" vType="car" speedFactor="1.01" vaporized=""/>
    <personinfo id="pf_2.12" depart="108.00" type="ped" speedFactor="0.97" duration="25.10" waitingTime="0.00" timeLoss="2.54" traveltime="25.10">
        <walk depart="108.00" departPos="15.72" arrival="133.10" arrivalPos="4.00" duration="25.10" routeLength="30.33" timeLoss="2.54" maxSpeed="1.34" waitingTime="0.00"/>
    </personinfo>
    <tripinfo id="C1_1.2" depart="35.30" departLane="440471861#0_1" departPos="5.10" departPosLat="0.00" departSpeed="30.18" departDelay="0.00" arrival="135.70" arrivalLane="-793339796#2_2" arrivalPos="83.13" arrivalPosLat="0.00" arrivalSpeed="30.18" duration="100.40" routeLength="1654.03" waitingTime="16.60" waitingCount="1" stopTime="0.00" timeLoss="44.57" rerouteNo="1" devices="tripinfo_C1_1.2 routing_C1_1.2" vType="car" speedFactor="1.09" vaporized=""/>
    <tripinfo id="C2_1.0" depart="40.30" departLane="440471861#0_2" departPos="5.10" departPosLat="0.00" departSpeed="31.32" departDelay="0.00" arrival="142.20" arrivalLane="-145894807#0_1" arrivalPos="260.97" arrivalPosLat="0.00" arrivalSpeed="9.38" duration="101.90" routeLength="1099.91" waitingTime="11.20" waitingCount="1" stopTime="0.00" timeLoss="24.39" rerouteNo="1" devices="tripinfo_C2_1.0 routing_C2_1.0" vType="car" speedFactor="1.13" vaporized=""/>
    <tripinfo id="D3_1.1" depart="94.70" departLane="140483224#1_2" departPos="8.10" departPosLat="0.00" departSpeed="27.78" departDelay="0.00" arrival="143.00" arrivalLane="-440471861#0_2" arrivalPos="31.49" arrivalPosLat="0.00" arrivalSpeed="27.73" duration="48.30" routeLength="1066.09" waitingTime="0.00" waitingCount="0" stopTime="0.00" timeLoss="8.40" rerouteNo="1" devices="tripinfo_D3_1.1 routing_D3_1.1" vType="jeep" speedFactor="1.00" vaporized=""/>
    <tripinfo id="C1_1.4" depart="57.10" departLane="440471861#0_1" departPos="5.10" departPosLat="0.00" departSpeed="26.27" departDelay="0.00" arrival="146.20" arrivalLane="-793339796#2_1" arrivalPos="83.13" arrivalPosLat="-0.00" arrivalSpeed="31.43" duration="89.10" routeLength="1654.03" waitingTime="0.00" waitingCount="0" stopTime="0.00" timeLoss="35.67" rerouteNo="1" devices="tripinfo_C1_1.4 routing_C1_1.4" vType="car" speedFactor="1.13" vaporized=""/>
    <personinfo id="pf_2.13" depart="117.00" type="ped" speedFactor="0.80" duration="30.10" waitingTime="0.00" timeLoss="2.91" traveltime="30.10">
        <walk depart="117.00" departPos="15.72" arrival="147.10" arrivalPos="4.00" duration="30.10" routeLength="30.33" timeLoss="2.91" maxSpeed="1.12" waitingTime="0.00"/>
    </personinfo>
    <tripinfo id="C1_1.3" depart="56.20" departLane="440471861#0_1" departPos="8.10" departPosLat="0.00" departSpeed="27.78" departDelay="0.00" arrival="147.10" arrivalLane="-793339796#2_2" arrivalPos="83.13" arrivalPosLat="0.00" arrivalSpeed="24.31" duration="90.90" routeLength="1651.03" waitingTime="0.00" waitingCount="0" stopTime="0.00" timeLoss="30.40" rerouteNo="1" devices="tripinfo_C1_1.3 routing_C1_1.3" vType="jeep" speedFactor="1.00" vaporized=""/>
    <tripinfo id="C1_1.5" depart="63.70" departLane="440471861#0_1" departPos="5.10" departPosLat="0.00" departSpeed="31.12" departDelay="0.00" arrival="148.50" arrivalLane="-793339796#2_1" arrivalPos="83.13" arrivalPosLat="0.00" arrivalSpeed="27.26" duration="84.80" routeLength="1654.03" waitingTime="0.00" waitingCount="0" stopTime="0.00" timeLoss="30.70" rerouteNo="1" devices="tripinfo_C1_1.5 routing_C1_1.5" vType="car" speedFactor="1.12" vaporized=""/>
    <personinfo id="pf_2.14" depart="126.00" type="ped" speedFactor="1.00" duration="24.20" waitingTime="0.00" timeLoss="2.38" traveltime="24.20">
        <walk depart="126.00" departPos="15.72" arrival="150.20" arrivalPos="4.00" duration="24.20" routeLength="30.33" timeLoss="2.38" maxSpeed="1.39" waitingTime="0.00"/>
    </personinfo>
    <tripinfo id="A2_1.4" depart="41.40" departLane="-793339796#2_1" departPos="7.20" departPosLat="0.00" departSpeed="25.45" departDelay="0.00" arrival="150.40" arrivalLane="-440471861#0_1" arrivalPos="31.49" arrivalPosLat="0.00" arrivalSpeed="25.40" duration="109.00" routeLength="1079.79" waitingTime="50.40" waitingCount="1" stopTime="0.00" timeLoss="66.51" rerouteNo="1" devices="tripinfo_A2_1.4 routing_A2_1.4" vType="truck" speedFactor="0.92" vaporized=""/>
    <tripinfo id="A2_1.6" depart="48.10" departLane="-793339796#2_2" departPos="8.10" departPosLat="0.00" departSpeed="27.78" departDelay="0.00" arrival="150.90" arrivalLane="-440471861#0_2" arrivalPos="31.49" arrivalPosLat="0.00" arrivalSpeed="27.77" duration="102.80" routeLength="1078.89" waitingTime="45.20" waitingCount="1" stopTime="0.00" timeLoss="63.89" rerouteNo="1" devices="tripinfo_A2_1.6 routing_A2_1.6" vType="jeep" speedFactor="1.00" vaporized=""/>
    <tripinfo id="A2_1.7" depart="48.40" departLane="-793339796#2_1" departPos="5.10" departPosLat="0.00" departSpeed="24.84" departDelay="0.00" arrival="152.10" arrivalLane="-440471861#0_2" arrivalPos="31.49" arrivalPosLat="0.00" arrivalSpeed="29.26" duration="103.70" routeLength="1081.89" waitingTime="40.50" waitingCount="1" stopTime="0.00" timeLoss="66.80" rerouteNo="1" devices="tripinfo_A2_1.7 routing_A2_1.7" vType="car" speedFactor="1.06" vaporized=""/>
    <tripinfo id="A3_1.2" depart="61.00" departLane="-793339796#2_1" departPos="7.20" departPosLat="0.00" departSpeed="28.25" departDelay="0.00" arrival="152.30" arrivalLane="-140483224#1_2" arrivalPos="64.17" arrivalPosLat="0.00" arrivalSpeed="28.23" duration="91.30" routeLength="1079.61" waitingTime="29.90" waitingCount="1" stopTime="0.00" timeLoss="51.58" rerouteNo="1" devices="tripinfo_A3_1.2 routing_A3_1.2" vType="truck" speedFactor="1.02" vaporized=""/>
    <tripinfo id="A2_1.5" depart="46.60" departLane="-793339796#2_1" departPos="5.10" departPosLat="0.00" departSpeed="23.13" departDelay="0.00" arrival="152.70" arrivalLane="-440471861#0_1" arrivalPos="31.49" arrivalPosLat="0.00" arrivalSpeed="23.03" duration="106.10" routeLength="1081.89" waitingTime="40.20" waitingCount="1" stopTime="0.00" timeLoss="59.23" rerouteNo="1" devices="tripinfo_A2_1.5 routing_A2_1.5" vType="car" speedFactor="0.83" vaporized=""/>
    <tripinfo id="C2_1.1" depart="54.60" departLane="440471861#0_2" departPos="2.30" departPosLat="0.00" departSpeed="27.20" departDelay="0.00" arrival="153.20" arrivalLane="-145894807#0_1" arrivalPos="260.97" arrivalPosLat="0.00" arrivalSpeed="7.90" duration="98.60" routeLength="1102.71" waitingTime="0.00" waitingCount="0" stopTime="0.00" timeLoss="9.24" rerouteNo="1" devices="tripinfo_C2_1.1 routing_C2_1.1" vType="motorcycle" speedFactor="0.98" vaporized=""/>
    <tripinfo id="A2_1.8" depart="54.10" departLane="-793339796#2_1" departPos="5.10" departPosLat="0.00" departSpeed="30.36" departDelay="0.00" arrival="153.90" arrivalLane="-440471861#0_1" arrivalPos="31.49" arrivalPosLat="-0.00" arrivalSpeed="25.40" duration="99.80" routeLength="1081.89" waitingTime="37.20" waitingCount="1" stopTime="0.00" timeLoss="64.13" rerouteNo="1" devices="tripinfo_A2_1.8 routing_A2_1.8" vType="car" speedFactor="1.09" vaporized=""/>
    <personinfo id="pf_2.15" depart="135.00" type="ped" speedFactor="1.07" duration="22.50" waitingTime="0.00" timeLoss="2.09" traveltime="22.50">
        <walk depart="135.00" departPos="15.72" arrival="157.50" arrivalPos="4.00" duration="22.50" routeLength="30.33" timeLoss="2.09" maxSpeed="1.49" waitingTime="0.00"/>
    </personinfo>
    <tripinfo id="D1_1.1" depart="47.90" departLane="140483224#1_1" departPos="5.10" departPosLat="0.00" departSpeed="26.48" departDelay="0.00" arrival="158.50" arrivalLane="-793339796#2_2" arrivalPos="83.13" arrivalPosLat="0.00" arrivalSpeed="26.44" duration="110.60" routeLength="1648.45" waitingTime="24.10" waitingCount="1" stopTime="0.00" timeLoss="45.94" rerouteNo="1" devices="tripinfo_D1_1.1 routing_D1_1.1" vType="car" speedFactor="0.95" vaporized=""/>
    <personinfo id="pf_2.16" depart="144.00" type="ped" speedFactor="1.13" duration="21.60" waitingTime="0.00" timeLoss="2.21" traveltime="21.60">
        <walk depart="144.00" departPos="15.72" arrival="165.60" arrivalPos="4.00" duration="21.60" routeLength="30.33" timeLoss="2.21" maxSpeed="1.56" waitingTime="0.00"/>
    </personinfo>
    <tripinfo id="D2_1.0" depart="25.10" departLane="140483224#1_1" departPos="2.30" departPosLat="0.00" departSpeed="29.87" departDelay="0.00" arrival="166.10" arrivalLane="-145894807#0_1" arrivalPos="260.97" arrivalPosLat="-0.00" arrivalSpeed="8.84" duration="141.00" routeLength="1112.65" waitingTime="53.00" waitingCount="2" stopTime="0.00" timeLoss="59.63" rerouteNo="1" devices="tripinfo_D2_1.0 routing_D2_1.0" vType="motorcycle" speedFactor="1.08" vaporized=""/>
    <tripinfo id="D1_1.2" depart="74.50" departLane="140483224#1_1" departPos="7.20" departPosLat="0.00" departSpeed="29.14" departDelay="0.00" arrival="169.80" arrivalLane="-793339796#2_2" arrivalPos="83.13" arrivalPosLat="0.00" arrivalSpeed="25.20" duration="95.30" routeLength="1646.35" waitingTime="0.00" waitingCount="0" stopTime="0.00" timeLoss="36.53" rerouteNo="1" devices="tripinfo_D1_1.2 routing_D1_1.2" vType="truck" speedFactor="1.05" vaporized=""/>
    <tripinfo id="B2_1.0" depart="13.90" departLane="-361257727#0_1" departPos="8.10" departPosLat="0.00" departSpeed="8.33" departDelay="0.00" arrival="170.80" arrivalLane="-440471861#0_2" arrivalPos="31.49" arrivalPosLat="0.00" arrivalSpeed="27.73" duration="156.90" routeLength="1411.29" waitingTime="18.90" waitingCount="1" stopTime="0.00" timeLoss="38.29" rerouteNo="1" devices="tripinfo_B2_1.0 routing_B2_1.0" vType="jeep" speedFactor="1.00" vaporized=""/>
    <tripinfo id="D1_1.3" depart="92.30" departLane="140483224#1_1" departPos="5.10" departPosLat="0.00" departSpeed="27.91" departDelay="0.00" arrival="171.00" arrivalLane="-793339796#2_2" arrivalPos="83.13" arrivalPosLat="0.00" arrivalSpeed="26.83" duration="78.70" routeLength="1648.45" waitingTime="0.00" waitingCount="0" stopTime="0.00" timeLoss="17.31" rerouteNo="1" devices="tripinfo_D1_1.3 routing_D1_1.3" vType="car" speedFactor="1.00" vaporized=""/>
    <tripinfo id="D2_1.1" depart="39.10" departLane="140483224#1_1" departPos="8.10" departPosLat="0.00" departSpeed="27.78" departDelay="0.00" arrival="171.90" arrivalLane="-145894807#0_1" arrivalPos="260.97" arrivalPosLat="0.00" arrivalSpeed="8.29" duration="132.80" routeLength="1106.85" waitingTime="30.30" waitingCount="1" stopTime="0.00" timeLoss="45.59" rerouteNo="1" devices="tripinfo_D2_1.1 routing_D2_1.1" vType="jeep" speedFactor="1.00" vaporized=""/>
    <tripinfo id="D2_1.2" depart="67.30" departLane="140483224#1_1" departPos="7.20" departPosLat="0.00" departSpeed="28.39" departDelay="0.00" arrival="174.20" arrivalLane="-145894807#0_1" arrivalPos="260.97" arrivalPosLat="0.00" arrivalSpeed="8.50" duration="106.90" routeLength="1107.75" waitingTime="3.60" waitingCount="1" stopTime="0.00" timeLoss="21.46" rerouteNo="1" devices="tripinfo_D2_1.2 routing_D2_1.2" vType="truck" speedFactor="1.02" vaporized=""/>
    <personinfo id="pf_2.17" depart="153.00" type="ped" speedFactor="1.11" duration="21.90" waitingTime="0.00" timeLoss="2.20" traveltime="21.90">
        <walk depart="153.00" departPos="15.72" arrival="174.90" arrivalPos="4.00" duration="21.90" routeLength="30.33" timeLoss="2.20" maxSpeed="1.54" waitingTime="0.00"/>
    </personinfo>
    <tripinfo id="C3_1.6" depart="70.30" departLane="440471861#0_1" departPos="5.10" departPosLat="0.00" departSpeed="27.76" departDelay="0.00" arrival="182.80" arrivalLane="-140483224#1_1" arrivalPos="64.17" arrivalPosLat="-0.00" arrivalSpeed="27.70" duration="112.50" routeLength="1053.93" waitingTime="63.20" waitingCount="1" stopTime="0.00" timeLoss="73.41" rerouteNo="1" devices="tripinfo_C3_1.6 routing_C3_1.6" vType="car" speedFactor="1.00" vaporized=""/>
    <tripinfo id="C3_1.7" depart="87.10" departLane="440471861#0_1" departPos="5.10" departPosLat="0.00" departSpeed="24.31" departDelay="0.00" arrival="186.90" arrivalLane="-140483224#1_1" arrivalPos="64.17" arrivalPosLat="-0.00" arrivalSpeed="24.25" duration="99.80" routeLength="1053.93" waitingTime="41.70" waitingCount="1" stopTime="0.00" timeLoss="55.12" rerouteNo="1" devices="tripinfo_C3_1.7 routing_C3_1.7" vType="car" speedFactor="0.88" vaporized=""/>
    <personinfo id="pf_2.18" depart="162.00" type="ped" speedFactor="0.92" duration="26.30" waitingTime="0.00" timeLoss="2.67" traveltime="26.30">
        <walk depart="162.00" departPos="15.72" arrival="188.30" arrivalPos="4.00" duration="26.30" routeLength="30.33" timeLoss="2.67" maxSpeed="1.28" waitingTime="0.00"/>
    </personinfo>
    <tripinfo id="C3_1.8" depart="109.30" departLane="440471861#0_1" departPos="2.30" departPosLat="0.00" departSpeed="25.22" departDelay="0.00" arrival="189.40" arrivalLane="-140483224#1_1" arrivalPos="64.17" arrivalPosLat="0.00" arrivalSpeed="25.14" duration="80.10" routeLength="1056.73" waitingTime="22.30" waitingCount="1" stopTime="0.00" timeLoss="36.86" rerouteNo="1" devices="tripinfo_C3_1.8 routing_C3_1.8" vType="tricycle" speedFactor="0.91" vaporized=""/>
    <tripinfo id="C3_1.9" depart="125.10" departLane="440471861#0_1" departPos="5.10" departPosLat="0.00" departSpeed="24.45" departDelay="0.00" arrival="192.10" arrivalLane="-140483224#1_1" arrivalPos="64.17" arrivalPosLat="-0.00" arrivalSpeed="24.40" duration="67.00" routeLength="1053.93" waitingTime="5.20" waitingCount="1" stopTime="0.00" timeLoss="22.60" rerouteNo="1" devices="tripinfo_C3_1.9 routing_C3_1.9" vType="car" speedFactor="0.88" vaporized=""/>
    <tripinfo id="C3_1.10" depart="132.90" departLane="440471861#0_1" departPos="5.10" departPosLat="0.00" departSpeed="19.93" departDelay="0.00" arrival="193.50" arrivalLane="-140483224#1_1" arrivalPos="64.17" arrivalPosLat="-0.00" arrivalSpeed="28.06" duration="60.60" routeLength="1053.93" waitingTime="0.00" waitingCount="0" stopTime="0.00" timeLoss="22.69" rerouteNo="1" devices="tripinfo_C3_1.10 routing_C3_1.10" vType="car" speedFactor="1.03" vaporized=""/>
    <personinfo id="pf_2.19" depart="171.00" type="ped" speedFactor="1.03" duration="23.50" waitingTime="0.00" timeLoss="2.38" traveltime="23.50">
        <walk depart="171.00" departPos="15.72" arrival="194.50" arrivalPos="4.00" duration="23.50" routeLength="30.33" timeLoss="2.38" maxSpeed="1.44" waitingTime="0.00"/>
    </personinfo>
    <tripinfo id="D3_1.2" depart="121.80" departLane="140483224#1_1" departPos="2.30" departPosLat="0.00" departSpeed="29.77" departDelay="0.00" arrival="198.90" arrivalLane="-440471861#0_2" arrivalPos="31.49" arrivalPosLat="0.00" arrivalSpeed="29.54" duration="77.10" routeLength="1071.89" waitingTime="35.50" waitingCount="1" stopTime="0.00" timeLoss="39.74" rerouteNo="1" devices="tripinfo_D3_1.2 routing_D3_1.2" vType="motorcycle" speedFactor="1.07" vaporized=""/>
    <tripinfo id="C1_1.6" depart="82.10" departLane="440471861#0_1" departPos="2.30" departPosLat="0.00" departSpeed="28.74" departDelay="0.00" arrival="203.70" arrivalLane="-793339796#2_2" arrivalPos="83.13" arrivalPosLat="0.00" arrivalSpeed="28.70" duration="121.60" routeLength="1656.83" waitingTime="53.10" waitingCount="1" stopTime="0.00" timeLoss="62.95" rerouteNo="1" devices="tripinfo_C1_1.6 routing_C1_1.6" vType="motorcycle" speedFactor="1.03" vaporized=""/>
    <tripinfo id="D3_1.3" depart="128.50" departLane="140483224#1_2" departPos="5.10" departPosLat="0.00" departSpeed="26.95" departDelay="0.00" arrival="204.30" arrivalLane="-440471861#0_2" arrivalPos="31.49" arrivalPosLat="0.00" arrivalSpeed="26.84" duration="75.80" routeLength="1069.09" waitingTime="21.70" waitingCount="1" stopTime="0.00" timeLoss="34.65" rerouteNo="1" devices="tripinfo_D3_1.3 routing_D3_1.3" vType="car" speedFactor="0.97" vaporized=""/>
    <personinfo id="pf_2.20" depart="180.00" type="ped" speedFactor="0.94" duration="25.70" waitingTime="0.00" timeLoss="2.51" traveltime="25.70">
        <walk depart="180.00" departPos="15.72" arrival="205.70" arrivalPos="4.00" duration="25.70" routeLength="30.33" timeLoss="2.51" maxSpeed="1.31" waitingTime="0.00"/>
    </personinfo>
    <tripinfo id="A1_1.0" depart="84.00" departLane="-793339796#2_1" departPos="2.30" departPosLat="0.00" departSpeed="20.60" departDelay="0.00" arrival="208.30" arrivalLane="-145894807#0_1" arrivalPos="260.97" arrivalPosLat="0.00" arrivalSpeed="5.95" duration="124.30" routeLength="1060.25" waitingTime="0.00" waitingCount="0" stopTime="0.00" timeLoss="3.40" rerouteNo="1" devices="tripinfo_A1_1.0 routing_A1_1.0" vType="motorcycle" speedFactor="0.74" vaporized=""/>
    <personinfo id="pf_2.21" depart="189.00" type="ped" speedFactor="1.05" duration="23.00" waitingTime="0.00" timeLoss="2.27" traveltime="23.00">
        <walk depart="189.00" departPos="15.72" arrival="212.00" arrivalPos="4.00" duration="23.00" routeLength="30.33" timeLoss="2.27" maxSpeed="1.46" waitingTime="0.00"/>
    </personinfo>