<?xml version="1.0" encoding="UTF-8"?>

<!-- generated on 2025-11-18 10:26:54 by Eclipse SUMO sumo Version 1.24.0
<sumoConfiguration xmlns:xsi="http://www.w3.org/2001/XMLSchema-instance" xsi:noNamespaceSchemaLocation="http://sumo.dlr.de/xsd/sumoConfiguration.xsd">

    <input>
        <net-file value="Olivarez_traci\network/baseline.net.xml"/>
        <route-files value="Olivarez_traci\demand\flows_normal_traffic.rou.xml"/>
        <additional-files value="Olivarez_traci\additionals/map.poly.xml,Olivarez_traci\ additionals/detectors.add.xml"/>
    </input>

    <output>
        <tripinfo-output value="Olivarez_traci\output_A2C_Baseline\SP_A2C_Baseline_Normal_trips.xml"/>
        <statistic-output value="Olivarez_traci\output_A2C_Baseline\SP_A2C_Baseline_Normal_stats.xml"/>
    </output>

    <time>
        <begin value="0"/>
        <end value="10800"/>
        <step-length value="0.1"/>
    </time>

    <processing>
        <lateral-resolution value="0.1"/>
        <collision.action value="none"/>
        <collision.check-junctions value="false"/>
        <collision.mingap-factor value="0"/>
    </processing>

    <report>
        <no-warnings value="true"/>
    </report>

    <traci_server>
        <remote-port value="55582"/>
    </traci_server>

    <gui_only>
        <delay value="0"/>
    </gui_only>

</sumoConfiguration>
-->

<tripinfos xmlns:xsi="http://www.w3.org/2001/XMLSchema-instance" xsi:noNamespaceSchemaLocation="http://sumo.dlr.de/xsd/tripinfo_file.xsd">
    <personinfo id="pf_2.0" depart="0.00" type="ped" speedFactor="1.06" duration="22.90" waitingTime="0.00" timeLoss="2.39" traveltime="22.90">
        <walk depart="0.00" departPos="15.72" arrival="22.90" arrivalPos="4.00" duration="22.90" routeLength="30.33" timeLoss="2.39" maxSpeed="1.48" waitingTime="0.00"/>
    </personinfo>
    <tripinfo id="A2_1.1" depart="16.40" departLane="-793339796#2_1" departPos="5.10" departPosLat="0.00" departSpeed="27.59" departDelay="0.00" arrival="58.80" arrivalLane="-440471861#0_2" arrivalPos="31.49" arrivalPosLat="0.00" arrivalSpeed="27.53" duration="42.40" routeLength="1081.89" waitingTime="0.00" waitingCount="0" stopTime="0.00" timeLoss="3.14" rerouteNo="1" devices="tripinfo_A2_1.1 routing_A2_1.1" vType="car" speedFactor="0.99" vaporized=""/>
    <personinfo id="pf_2.1" depart="36.00" type="ped" speedFactor="0.96" duration="25.30" waitingTime="0.00" timeLoss="2.47" traveltime="25.30">
        <walk depart="36.00" departPos="15.72" arrival="61.30" arrivalPos="4.00" duration="25.30" routeLength="30.33" timeLoss="2.47" maxSpeed="1.33" waitingTime="0.00"/>
    </personinfo>
    <tripinfo id="A2_1.0" depart="8.90" departLane="-793339796#2_1" departPos="5.10" departPosLat="0.00" departSpeed="23.90" departDelay="0.00" arrival="63.80" arrivalLane="-440471861#0_1" arrivalPos="31.49" arrivalPosLat="0.00" arrivalSpeed="23.85" duration="54.90" routeLength="1081.89" waitingTime="1.00" waitingCount="1" stopTime="0.00" timeLoss="9.61" rerouteNo="1" devices="tripinfo_A2_1.0 routing_A2_1.0" vType="car" speedFactor="0.86" vaporized=""/>
    <tripinfo id="D1_1.0" depart="1.20" departLane="140483224#1_1" departPos="5.10" departPosLat="0.00" departSpeed="27.72" departDelay="0.00" arrival="76.20" arrivalLane="-793339796#2_2" arrivalPos="83.13" arrivalPosLat="0.00" arrivalSpeed="27.62" duration="75.00" routeLength="1648.45" waitingTime="0.00" waitingCount="0" stopTime="0.00" timeLoss="13.13" rerouteNo="1" devices="tripinfo_D1_1.0 routing_D1_1.0" vType="car" speedFactor="1.00" vaporized=""/>
    <tripinfo id="C3_1.0" depart="22.80" departLane="440471861#0_1" departPos="2.30" departPosLat="0.00" departSpeed="30.91" departDelay="0.00" arrival="96.60" arrivalLane="-140483224#1_1" arrivalPos="64.17" arrivalPosLat="0.00" arrivalSpeed="30.82" duration="73.80" routeLength="1056.73" waitingTime="34.20" waitingCount="1" stopTime="0.00" timeLoss="38.56" rerouteNo="1" devices="tripinfo_C3_1.0 routing_C3_1.0" vType="motorcycle" speedFactor="1.11" vaporized=""/>
    <personinfo id="pf_2.2" depart="72.00" type="ped" speedFactor="0.97" duration="25.10" waitingTime="0.00" timeLoss="2.54" traveltime="25.10">
        <walk depart="72.00" departPos="15.72" arrival="97.10" arrivalPos="4.00" duration="25.10" routeLength="30.33" timeLoss="2.54" maxSpeed="1.34" waitingTime="0.00"/>
    </personinfo>
    <tripinfo id="D3_1.0" depart="15.30" departLane="140483224#1_1" departPos="12.10" departPosLat="0.00" departSpeed="27.78" departDelay="0.00" arrival="130.30" arrivalLane="-440471861#0_2" arrivalPos="31.49" arrivalPosLat="0.00" arrivalSpeed="27.73" duration="115.00" routeLength="1062.09" waitingTime="58.20" waitingCount="1" stopTime="0.00" timeLoss="75.28" rerouteNo="1" devices="tripinfo_D3_1.0 routing_D3_1.0" vType="bus" speedFactor="1.00" vaporized=""/>
    <tripinfo id="C2_1.0" depart="40.30" departLane="440471861#0_2" departPos="5.10" departPosLat="0.00" departSpeed="38.00" departDelay="0.00" arrival="130.90" arrivalLane="-145894807#0_1" arrivalPos="260.97" arrivalPosLat="0.00" arrivalSpeed="11.31" duration="90.60" routeLength="1099.91" waitingTime="17.30" waitingCount="1" stopTime="0.00" timeLoss="26.71" rerouteNo="1" devices="tripinfo_C2_1.0 routing_C2_1.0" vType="car" speedFactor="1.37" vaporized=""/>
    <tripinfo id="C1_1.0" depart="35.30" departLane="440471861#0_1" departPos="5.10" departPosLat="0.00" departSpeed="26.89" departDelay="0.00" arrival="133.30" arrivalLane="-793339796#2_2" arrivalPos="83.13" arrivalPosLat="0.00" arrivalSpeed="26.81" duration="98.00" routeLength="1654.03" waitingTime="15.30" waitingCount="1" stopTime="0.00" timeLoss="35.38" rerouteNo="1" devices="tripinfo_C1_1.0 routing_C1_1.0" vType="car" speedFactor="0.97" vaporized=""/>
    <personinfo id="pf_2.3" depart="108.00" type="ped" speedFactor="0.95" duration="25.60" waitingTime="0.00" timeLoss="2.67" traveltime="25.60">
        <walk depart="108.00" departPos="15.72" arrival="133.60" arrivalPos="4.00" duration="25.60" routeLength="30.33" timeLoss="2.67" maxSpeed="1.32" waitingTime="0.00"/>
    </personinfo>
    <tripinfo id="C1_1.1" depart="63.70" departLane="440471861#0_1" departPos="5.10" departPosLat="0.00" departSpeed="26.59" departDelay="0.00" arrival="137.10" arrivalLane="-793339796#2_2" arrivalPos="83.13" arrivalPosLat="0.00" arrivalSpeed="26.49" duration="73.40" routeLength="1654.03" waitingTime="0.00" waitingCount="0" stopTime="0.00" timeLoss="9.91" rerouteNo="1" devices="tripinfo_C1_1.1 routing_C1_1.1" vType="car" speedFactor="0.96" vaporized=""/>
    <tripinfo id="D1_1.1" depart="74.50" departLane="140483224#1_1" departPos="2.30" departPosLat="0.00" departSpeed="31.28" departDelay="0.00" arrival="140.30" arrivalLane="-793339796#2_2" arrivalPos="83.13" arrivalPosLat="0.00" arrivalSpeed="31.06" duration="65.80" routeLength="1651.25" waitingTime="1.90" waitingCount="1" stopTime="0.00" timeLoss="10.95" rerouteNo="1" devices="tripinfo_D1_1.1 routing_D1_1.1" vType="motorcycle" speedFactor="1.13" vaporized=""/>
    <personinfo id="pf_2.4" depart="144.00" type="ped" speedFactor="0.89" duration="27.20" waitingTime="0.00" timeLoss="2.77" traveltime="27.20">
        <walk depart="144.00" departPos="15.72" arrival="171.20" arrivalPos="4.00" duration="27.20" routeLength="30.33" timeLoss="2.77" maxSpeed="1.24" waitingTime="0.00"/>
    </personinfo>
    <tripinfo id="D1_1.2" depart="92.30" departLane="140483224#1_1" departPos="7.20" departPosLat="0.00" departSpeed="27.33" departDelay="0.00" arrival="177.00" arrivalLane="-793339796#2_2" arrivalPos="83.13" arrivalPosLat="0.00" arrivalSpeed="25.61" duration="84.70" routeLength="1646.35" waitingTime="0.00" waitingCount="0" stopTime="0.00" timeLoss="22.00" rerouteNo="1" devices="tripinfo_D1_1.2 routing_D1_1.2" vType="truck" speedFactor="0.98" vaporized=""/>
    <tripinfo id="C3_1.1" depart="87.10" departLane="440471861#0_1" departPos="5.10" departPosLat="0.00" departSpeed="24.05" departDelay="0.00" arrival="187.10" arrivalLane="-140483224#1_1" arrivalPos="64.17" arrivalPosLat="-0.00" arrivalSpeed="23.99" duration="100.00" routeLength="1053.93" waitingTime="41.50" waitingCount="1" stopTime="0.00" timeLoss="54.84" rerouteNo="1" devices="tripinfo_C3_1.1 routing_C3_1.1" vType="car" speedFactor="0.87" vaporized=""/>
    <tripinfo id="C3_1.2" depart="156.50" departLane="440471861#0_1" departPos="5.10" departPosLat="0.00" departSpeed="29.12" departDelay="0.00" arrival="199.90" arrivalLane="-140483224#1_1" arrivalPos="64.17" arrivalPosLat="-0.00" arrivalSpeed="28.99" duration="43.40" routeLength="1053.93" waitingTime="0.00" waitingCount="0" stopTime="0.00" timeLoss="6.00" rerouteNo="1" devices="tripinfo_C3_1.2 routing_C3_1.2" vType="car" speedFactor="1.05" vaporized=""/>
    <personinfo id="pf_2.5" depart="180.00" type="ped" speedFactor="1.07" duration="22.70" waitingTime="0.00" timeLoss="2.34" traveltime="22.70">
        <walk depart="180.00" departPos="15.72" arrival="202.70" arrivalPos="4.00" duration="22.70" routeLength="30.33" timeLoss="2.34" maxSpeed="1.49" waitingTime="0.00"/>
    </personinfo>
    <tripinfo id="B1_1.0" depart="75.60" departLane="-361257727#0_1" departPos="2.30" departPosLat="0.00" departSpeed="8.63" departDelay="0.00" arrival="218.80" arrivalLane="-793339796#2_1" arrivalPos="83.13" arrivalPosLat="-0.00" arrivalSpeed="28.59" duration="143.20" routeLength="1918.42" waitingTime="0.00" waitingCount="0" stopTime="0.00" timeLoss="12.86" rerouteNo="1" devices="tripinfo_B1_1.0 routing_B1_1.0" vType="motorcycle" speedFactor="1.04" vaporized=""/>
    <tripinfo id="C1_1.3" depart="142.00" departLane="440471861#0_1" departPos="8.10" departPosLat="0.00" departSpeed="27.78" departDelay="0.00" arrival="219.30" arrivalLane="-793339796#2_2" arrivalPos="83.13" arrivalPosLat="0.00" arrivalSpeed="24.05" duration="77.30" routeLength="1651.03" waitingTime="0.00" waitingCount="0" stopTime="0.00" timeLoss="16.73" rerouteNo="1" devices="tripinfo_C1_1.3 routing_C1_1.3" vType="jeep" speedFactor="1.00" vaporized=""/>
    <tripinfo id="A3_1.0" depart="127.10" departLane="-793339796#2_2" departPos="2.30" departPosLat="0.00" departSpeed="29.09" departDelay="0.00" arrival="219.70" arrivalLane="-140483224#1_2" arrivalPos="64.17" arrivalPosLat="0.00" arrivalSpeed="28.99" duration="92.60" routeLength="1084.51" waitingTime="49.80" waitingCount="1" stopTime="0.00" timeLoss="53.90" rerouteNo="1" devices="tripinfo_A3_1.0 routing_A3_1.0" vType="motorcycle" speedFactor="1.05" vaporized=""/>
    <tripinfo id="C1_1.2" depart="82.10" departLane="440471861#0_1" departPos="5.10" departPosLat="0.00" departSpeed="28.72" departDelay="0.00" arrival="220.60" arrivalLane="-793339796#2_2" arrivalPos="83.13" arrivalPosLat="0.00" arrivalSpeed="25.58" duration="138.50" routeLength="1654.03" waitingTime="53.10" waitingCount="1" stopTime="0.00" timeLoss="79.76" rerouteNo="1" devices="tripinfo_C1_1.2 routing_C1_1.2" vType="car" speedFactor="1.03" vaporized=""/>
    <tripinfo id="A2_1.2" depart="125.80" departLane="-793339796#2_1" departPos="5.10" departPosLat="0.00" departSpeed="30.46" departDelay="0.00" arrival="222.70" arrivalLane="-440471861#0_1" arrivalPos="31.49" arrivalPosLat="0.00" arrivalSpeed="30.37" duration="96.90" routeLength="1081.89" waitingTime="50.20" waitingCount="1" stopTime="0.00" timeLoss="61.38" rerouteNo="1" devices="tripinfo_A2_1.2 routing_A2_1.2" vType="car" speedFactor="1.10" vaporized=""/>
    <tripinfo id="A2_1.3" depart="129.90" departLane="-793339796#2_1" departPos="8.10" departPosLat="0.00" departSpeed="27.78" departDelay="0.00" arrival="232.20" arrivalLane="-440471861#0_2" arrivalPos="31.49" arrivalPosLat="0.00" arrivalSpeed="27.73" duration="102.30" routeLength="1078.89" waitingTime="40.50" waitingCount="1" stopTime="0.00" timeLoss="63.45" rerouteNo="1" devices="tripinfo_A2_1.3 routing_A2_1.3" vType="jeep" speedFactor="1.00" vaporized=""/>
    <tripinfo id="D1_1.3" depart="117.10" departLane="140483224#1_1" departPos="5.10" departPosLat="0.00" departSpeed="27.95" departDelay="0.00" arrival="236.70" arrivalLane="-793339796#2_2" arrivalPos="83.13" arrivalPosLat="0.00" arrivalSpeed="27.89" duration="119.60" routeLength="1648.45" waitingTime="37.70" waitingCount="1" stopTime="0.00" timeLoss="58.31" rerouteNo="1" devices="tripinfo_D1_1.3 routing_D1_1.3" vType="car" speedFactor="1.01" vaporized=""/>
    <personinfo id="pf_2.6" depart="216.00" type="ped" speedFactor="1.01" duration="23.80" waitingTime="0.00" timeLoss="2.26" traveltime="23.80">
        <walk depart="216.00" departPos="15.72" arrival="239.80" arrivalPos="4.00" duration="23.80" routeLength="30.33" timeLoss="2.26" maxSpeed="1.41" waitingTime="0.00"/>
    </personinfo>
    <tripinfo id="A3_1.1" depart="193.40" departLane="-793339796#2_2" departPos="8.10" departPosLat="0.00" departSpeed="27.78" departDelay="0.00" arrival="241.40" arrivalLane="-140483224#1_2" arrivalPos="64.17" arrivalPosLat="0.00" arrivalSpeed="27.73" duration="48.00" routeLength="1078.71" waitingTime="0.00" waitingCount="0" stopTime="0.00" timeLoss="7.59" rerouteNo="1" devices="tripinfo_A3_1.1 routing_A3_1.1" vType="jeep" speedFactor="1.00" vaporized=""/>
    <tripinfo id="B2_1.0" depart="62.00" departLane="-361257727#0_1" departPos="7.20" departPosLat="0.00" departSpeed="8.62" departDelay="0.00" arrival="250.70" arrivalLane="-440471861#0_2" arrivalPos="31.49" arrivalPosLat="0.00" arrivalSpeed="28.70" duration="188.70" routeLength="1412.19" waitingTime="55.00" waitingCount="1" stopTime="0.00" timeLoss="74.03" rerouteNo="1" devices="tripinfo_B2_1.0 routing_B2_1.0" vType="truck" speedFactor="1.04" vaporized=""/>
    <personinfo id="pf_1.0" depart="0.00" type="ped" speedFactor="1.06" duration="251.10" waitingTime="3.20" timeLoss="28.19" traveltime="251.10">
        <walk depart="0.00" departPos="25.00" arrival="251.10" arrivalPos="4.00" duration="251.10" routeLength="328.17" timeLoss="28.19" maxSpeed="1.47" waitingTime="3.20"/>
    </personinfo>
    <tripinfo id="A1_1.0" depart="157.90" departLane="-793339796#2_1" departPos="5.10" departPosLat="0.00" departSpeed="27.67" departDelay="0.00" arrival="251.60" arrivalLane="-145894807#0_1" arrivalPos="260.97" arrivalPosLat="0.00" arrivalSpeed="8.24" duration="93.70" routeLength="1057.45" waitingTime="0.00" waitingCount="0" stopTime="0.00" timeLoss="3.80" rerouteNo="1" devices="tripinfo_A1_1.0 routing_A1_1.0" vType="car" speedFactor="1.00" vaporized=""/>
    <tripinfo id="D2_1.0" depart="93.70" departLane="140483224#1_1" departPos="8.10" departPosLat="0.00" departSpeed="27.33" departDelay="0.00" arrival="253.70" arrivalLane="-145894807#0_1" arrivalPos="260.97" arrivalPosLat="0.00" arrivalSpeed="8.27" duration="160.00" routeLength="1106.85" waitingTime="59.50" waitingCount="1" stopTime="0.00" timeLoss="72.69" rerouteNo="1" devices="tripinfo_D2_1.0 routing_D2_1.0" vType="jeep" speedFactor="1.00" vaporized=""/>
    <tripinfo id="D2_1.1" depart="134.80" departLane="140483224#1_1" departPos="8.10" departPosLat="0.00" departSpeed="27.78" departDelay="0.00" arrival="256.00" arrivalLane="-145894807#0_1" arrivalPos="260.97" arrivalPosLat="0.00" arrivalSpeed="8.29" duration="121.20" routeLength="1106.85" waitingTime="16.60" waitingCount="1" stopTime="0.00" timeLoss="33.90" rerouteNo="1" devices="tripinfo_D2_1.1 routing_D2_1.1" vType="jeep" speedFactor="1.00" vaporized=""/>
    <tripinfo id="C3_1.3" depart="208.00" departLane="440471861#0_1" departPos="7.20" departPosLat="0.00" departSpeed="26.77" departDelay="0.00" arrival="271.30" arrivalLane="-140483224#1_1" arrivalPos="64.17" arrivalPosLat="-0.00" arrivalSpeed="26.73" duration="63.30" routeLength="1051.83" waitingTime="6.80" waitingCount="1" stopTime="0.00" timeLoss="22.83" rerouteNo="1" devices="tripinfo_C3_1.3 routing_C3_1.3" vType="truck" speedFactor="0.96" vaporized=""/>
    <personinfo id="pf_2.7" depart="252.00" type="ped" speedFactor="1.03" duration="23.30" waitingTime="0.00" timeLoss="2.19" traveltime="23.30">
        <walk depart="252.00" departPos="15.72" arrival="275.30" arrivalPos="4.00" duration="23.30" routeLength="30.33" timeLoss="2.19" maxSpeed="1.44" waitingTime="0.00"/>
    </personinfo>
    <tripinfo id="D3_1.1" depart="201.70" departLane="140483224#1_2" departPos="5.10" departPosLat="0.00" departSpeed="32.43" departDelay="0.00" arrival="282.20" arrivalLane="-440471861#0_2" arrivalPos="31.49" arrivalPosLat="0.00" arrivalSpeed="32.43" duration="80.50" routeLength="1069.09" waitingTime="36.10" waitingCount="1" stopTime="0.00" timeLoss="46.33" rerouteNo="1" devices="tripinfo_D3_1.1 routing_D3_1.1" vType="car" speedFactor="1.17" vaporized=""/>
    <tripinfo id="D3_1.2" depart="206.80" departLane="140483224#1_2" departPos="5.10" departPosLat="0.00" departSpeed="24.00" departDelay="0.00" arrival="289.00" arrivalLane="-440471861#0_2" arrivalPos="31.49" arrivalPosLat="0.00" arrivalSpeed="23.93" duration="82.20" routeLength="1069.09" waitingTime="26.80" waitingCount="1" stopTime="0.00" timeLoss="35.94" rerouteNo="1" devices="tripinfo_D3_1.2 routing_D3_1.2" vType="car" speedFactor="0.86" vaporized=""/>
    <tripinfo id="D3_1.3" depart="212.70" departLane="140483224#1_1" departPos="2.30" departPosLat="0.00" departSpeed="21.47" departDelay="0.00" arrival="292.20" arrivalLane="-440471861#0_2" arrivalPos="31.49" arrivalPosLat="0.00" arrivalSpeed="21.28" duration="79.50" routeLength="1071.89" waitingTime="16.40" waitingCount="1" stopTime="0.00" timeLoss="27.67" rerouteNo="1" devices="tripinfo_D3_1.3 routing_D3_1.3" vType="motorcycle" speedFactor="0.77" vaporized=""/>
    <tripinfo id="C1_1.4" depart="227.40" departLane="440471861#0_1" departPos="7.20" departPosLat="0.00" departSpeed="28.00" departDelay="0.00" arrival="301.00" arrivalLane="-793339796#2_2" arrivalPos="83.13" arrivalPosLat="0.00" arrivalSpeed="25.44" duration="73.60" routeLength="1651.93" waitingTime="0.00" waitingCount="0" stopTime="0.00" timeLoss="13.49" rerouteNo="1" devices="tripinfo_C1_1.4 routing_C1_1.4" vType="truck" speedFactor="1.01" vaporized=""/>
    <tripinfo id="D1_1.4" depart="236.00" departLane="140483224#1_1" departPos="2.30" departPosLat="0.00" departSpeed="28.23" departDelay="0.00" arrival="309.90" arrivalLane="-793339796#2_2" arrivalPos="83.13" arrivalPosLat="0.00" arrivalSpeed="28.11" duration="73.90" routeLength="1651.25" waitingTime="0.00" waitingCount="0" stopTime="0.00" timeLoss="13.09" rerouteNo="1" devices="tripinfo_D1_1.4 routing_D1_1.4" vType="motorcycle" speedFactor="1.02" vaporized=""/>
    <personinfo id="pf_2.8" depart="288.00" type="ped" speedFactor="1.06" duration="22.80" waitingTime="0.00" timeLoss="2.29" traveltime="22.80">
        <walk depart="288.00" departPos="15.72" arrival="310.80" arrivalPos="4.00" duration="22.80" routeLength="30.33" timeLoss="2.29" maxSpeed="1.48" waitingTime="0.00"/>
    </personinfo>
    <tripinfo id="A3_1.2" depart="214.60" departLane="-793339796#2_2" departPos="8.10" departPosLat="0.00" departSpeed="27.78" departDelay="0.00" arrival="312.70" arrivalLane="-140483224#1_2" arrivalPos="64.17" arrivalPosLat="0.00" arrivalSpeed="27.77" duration="98.10" routeLength="1078.71" waitingTime="40.70" waitingCount="1" stopTime="0.00" timeLoss="57.73" rerouteNo="1" devices="tripinfo_A3_1.2 routing_A3_1.2" vType="jeep" speedFactor="1.00" vaporized=""/>
    <tripinfo id="A3_1.3" depart="222.10" departLane="-793339796#2_2" departPos="5.10" departPosLat="0.00" departSpeed="28.66" departDelay="0.00" arrival="313.90" arrivalLane="-140483224#1_2" arrivalPos="64.17" arrivalPosLat="0.00" arrivalSpeed="28.62" duration="91.80" routeLength="1081.71" waitingTime="30.40" waitingCount="1" stopTime="0.00" timeLoss="52.62" rerouteNo="1" devices="tripinfo_A3_1.3 routing_A3_1.3" vType="car" speedFactor="1.03" vaporized=""/>
    <tripinfo id="A3_1.4" depart="227.60" departLane="-793339796#2_2" departPos="5.10" departPosLat="0.00" departSpeed="24.33" departDelay="0.00" arrival="316.00" arrivalLane="-140483224#1_2" arrivalPos="64.17" arrivalPosLat="0.00" arrivalSpeed="24.29" duration="88.40" routeLength="1081.71" waitingTime="23.20" waitingCount="1" stopTime="0.00" timeLoss="42.23" rerouteNo="1" devices="tripinfo_A3_1.4 routing_A3_1.4" vType="car" speedFactor="0.88" vaporized=""/>
    <tripinfo id="A3_1.5" depart="255.40" departLane="-793339796#2_2" departPos="8.10" departPosLat="0.00" departSpeed="27.78" departDelay="0.00" arrival="317.60" arrivalLane="-140483224#1_2" arrivalPos="64.17" arrivalPosLat="0.00" arrivalSpeed="25.50" duration="62.20" routeLength="1078.71" waitingTime="0.00" waitingCount="0" stopTime="0.00" timeLoss="21.89" rerouteNo="1" devices="tripinfo_A3_1.5 routing_A3_1.5" vType="jeep" speedFactor="1.00" vaporized=""/>
    <tripinfo id="B2_1.1" depart="129.20" departLane="-361257727#0_1" departPos="5.10" departPosLat="0.00" departSpeed="7.20" departDelay="0.00" arrival="326.90" arrivalLane="-440471861#0_1" arrivalPos="31.49" arrivalPosLat="-0.00" arrivalSpeed="23.96" duration="197.70" routeLength="1414.29" waitingTime="51.40" waitingCount="1" stopTime="0.00" timeLoss="60.12" rerouteNo="1" devices="tripinfo_B2_1.1 routing_B2_1.1" vType="car" speedFactor="0.86" vaporized=""/>
    <tripinfo id="B2_1.2" depart="150.30" departLane="-361257727#0_1" departPos="5.10" departPosLat="0.00" departSpeed="8.28" departDelay="0.00" arrival="328.20" arrivalLane="-440471861#0_1" arrivalPos="31.49" arrivalPosLat="-0.00" arrivalSpeed="26.41" duration="177.90" routeLength="1414.29" waitingTime="43.10" waitingCount="1" stopTime="0.00" timeLoss="58.23" rerouteNo="1" devices="tripinfo_B2_1.2 routing_B2_1.2" vType="car" speedFactor="0.99" vaporized=""/>
    <personinfo id="pf_1.2" depart="72.00" type="ped" speedFactor="1.01" duration="262.60" waitingTime="3.10" timeLoss="28.75" traveltime="262.60">
        <walk depart="72.00" departPos="25.00" arrival="334.60" arrivalPos="4.00" duration="262.60" routeLength="328.17" timeLoss="28.75" maxSpeed="1.40" waitingTime="3.10"/>
    </personinfo>
    <tripinfo id="D2_1.2" depart="185.20" departLane="140483224#1_1" departPos="7.20" departPosLat="0.00" departSpeed="26.14" departDelay="0.00" arrival="336.60" arrivalLane="-145894807#0_1" arrivalPos="260.97" arrivalPosLat="0.00" arrivalSpeed="7.82" duration="151.40" routeLength="1107.75" waitingTime="49.10" waitingCount="1" stopTime="0.00" timeLoss="58.63" rerouteNo="1" devices="tripinfo_D2_1.2 routing_D2_1.2" vType="truck" speedFactor="0.94" vaporized=""/>
    <tripinfo id="D2_1.3" depart="223.20" departLane="140483224#1_1" departPos="2.30" departPosLat="0.00" departSpeed="28.22" departDelay="0.00" arrival="338.50" arrivalLane="-145894807#0_1" arrivalPos="260.97" arrivalPosLat="0.00" arrivalSpeed="8.28" duration="115.30" routeLength="1112.65" waitingTime="14.20" waitingCount="1" stopTime="0.00" timeLoss="29.15" rerouteNo="1" devices="tripinfo_D2_1.3 routing_D2_1.3" vType="motorcycle" speedFactor="1.02" vaporized=""/>
    <personinfo id="pf_1.1" depart="36.00" type="ped" speedFactor="0.94" duration="302.80" waitingTime="23.50" timeLoss="50.98" traveltime="302.80">
        <walk depart="36.00" departPos="25.00" arrival="338.80" arrivalPos="4.00" duration="302.80" routeLength="328.17" timeLoss="50.98" maxSpeed="1.30" waitingTime="23.50"/>
    </personinfo>
    <personinfo id="pf_2.9" depart="324.00" type="ped" speedFactor="0.96" duration="25.10" waitingTime="0.00" timeLoss="2.34" traveltime="25.10">
        <walk depart="324.00" departPos="15.72" arrival="349.10" arrivalPos="4.00" duration="25.10" routeLength="30.33" timeLoss="2.34" maxSpeed="1.33" waitingTime="0.00"/>
    </personinfo>
    <tripinfo id="C3_1.4" depart="303.70" departLane="440471861#0_1" departPos="7.20" departPosLat="0.00" departSpeed="25.92" departDelay="0.00" arrival="355.20" arrivalLane="-140483224#1_1" arrivalPos="64.17" arrivalPosLat="-0.00" arrivalSpeed="25.89" duration="51.50" routeLength="1051.83" waitingTime="0.00" waitingCount="0" stopTime="0.00" timeLoss="9.75" rerouteNo="1" devices="tripinfo_C3_1.4 routing_C3_1.4" vType="truck" speedFactor="0.93" vaporized=""/>
    <tripinfo id="A1_1.1" depart="251.30" departLane="-793339796#2_1" departPos="5.10" departPosLat="0.00" departSpeed="24.70" departDelay="0.00" arrival="355.70" arrivalLane="-145894807#0_1" arrivalPos="260.97" arrivalPosLat="0.00" arrivalSpeed="7.40" duration="104.40" routeLength="1057.45" waitingTime="0.00" waitingCount="0" stopTime="0.00" timeLoss="3.69" rerouteNo="1" devices="tripinfo_A1_1.1 routing_A1_1.1" vType="car" speedFactor="0.89" vaporized=""/>
    <tripinfo id="C1_1.5" depart="294.40" departLane="440471861#0_1" departPos="5.10" departPosLat="0.00" departSpeed="28.13" departDelay="0.00" arrival="379.10" arrivalLane="-793339796#2_2" arrivalPos="83.13" arrivalPosLat="0.00" arrivalSpeed="28.12" duration="84.70" routeLength="1654.03" waitingTime="5.20" waitingCount="2" stopTime="0.00" timeLoss="24.80" rerouteNo="1" devices="tripinfo_C1_1.5 routing_C1_1.5" vType="car" speedFactor="1.01" vaporized=""/>
    <tripinfo id="A3_1.6" depart="282.20" departLane="-793339796#2_1" departPos="2.30" departPosLat="0.00" departSpeed="27.38" departDelay="0.00" arrival="382.80" arrivalLane="-140483224#1_2" arrivalPos="64.17" arrivalPosLat="0.00" arrivalSpeed="27.21" duration="100.60" routeLength="1084.51" waitingTime="55.60" waitingCount="1" stopTime="0.00" timeLoss="59.42" rerouteNo="1" devices="tripinfo_A3_1.6 routing_A3_1.6" vType="motorcycle" speedFactor="0.99" vaporized=""/>
    <tripinfo id="A2_1.4" depart="312.90" departLane="-793339796#2_1" departPos="5.10" departPosLat="0.00" departSpeed="27.74" departDelay="0.00" arrival="385.80" arrivalLane="-440471861#0_1" arrivalPos="31.49" arrivalPosLat="0.00" arrivalSpeed="27.65" duration="72.90" routeLength="1081.89" waitingTime="15.30" waitingCount="1" stopTime="0.00" timeLoss="33.90" rerouteNo="1" devices="tripinfo_A2_1.4 routing_A2_1.4" vType="car" speedFactor="1.00" vaporized=""/>
    <personinfo id="pf_2.10" depart="360.00" type="ped" speedFactor="0.93" duration="26.00" waitingTime="0.00" timeLoss="2.46" traveltime="26.00">
        <walk depart="360.00" departPos="15.72" arrival="386.00" arrivalPos="4.00" duration="26.00" routeLength="30.33" timeLoss="2.46" maxSpeed="1.29" waitingTime="0.00"/>
    </personinfo>
    <tripinfo id="A3_1.7" depart="298.10" departLane="-793339796#2_2" departPos="5.10" departPosLat="0.00" departSpeed="18.66" departDelay="1.10" arrival="388.40" arrivalLane="-140483224#1_2" arrivalPos="64.17" arrivalPosLat="0.00" arrivalSpeed="24.65" duration="90.30" routeLength="1081.71" waitingTime="32.10" waitingCount="1" stopTime="0.00" timeLoss="44.67" rerouteNo="1" devices="tripinfo_A3_1.7 routing_A3_1.7" vType="car" speedFactor="0.89" vaporized=""/>
    <tripinfo id="A3_1.8" depart="315.50" departLane="-793339796#2_2" departPos="5.10" departPosLat="0.00" departSpeed="33.71" departDelay="0.00" arrival="389.60" arrivalLane="-140483224#1_2" arrivalPos="64.17" arrivalPosLat="0.00" arrivalSpeed="26.93" duration="74.10" routeLength="1081.71" waitingTime="20.20" waitingCount="1" stopTime="0.00" timeLoss="40.79" rerouteNo="1" devices="tripinfo_A3_1.8 routing_A3_1.8" vType="car" speedFactor="1.21" vaporized=""/>
    <tripinfo id="D1_1.5" depart="315.20" departLane="140483224#1_1" departPos="5.10" departPosLat="0.00" departSpeed="31.25" departDelay="0.00" arrival="392.20" arrivalLane="-793339796#2_2" arrivalPos="83.13" arrivalPosLat="0.00" arrivalSpeed="31.13" duration="77.00" routeLength="1648.45" waitingTime="3.10" waitingCount="1" stopTime="0.00" timeLoss="22.20" rerouteNo="1" devices="tripinfo_D1_1.5 routing_D1_1.5" vType="car" speedFactor="1.12" vaporized=""/>
    <personinfo id="pf_3.0" depart="0.00" type="ped" speedFactor="0.95" duration="400.30" waitingTime="0.00" timeLoss="39.22" traveltime="400.30">
        <walk depart="0.00" departPos="25.00" arrival="113.50" arrivalPos="18.88" duration="113.50" routeLength="135.02" timeLoss="10.89" maxSpeed="1.32" waitingTime="0.00"/>
        <walk depart="113.50" departPos="18.88" arrival="400.30" arrivalPos="22.75" duration="286.80" routeLength="340.11" timeLoss="28.33" maxSpeed="1.32" waitingTime="0.00"/>
    </personinfo>
    <personinfo id="pf_1.3" depart="108.00" type="ped" speedFactor="1.08" duration="303.90" waitingTime="61.30" timeLoss="85.67" traveltime="303.90">
        <walk depart="108.00" departPos="25.00" arrival="411.90" arrivalPos="4.00" duration="303.90" routeLength="328.17" timeLoss="85.67" maxSpeed="1.50" waitingTime="61.30"/>
    </personinfo>
    <personinfo id="pf_1.4" depart="144.00" type="ped" speedFactor="1.03" duration="270.80" waitingTime="15.20" timeLoss="41.47" traveltime="270.80">
        <walk depart="144.00" departPos="25.00" arrival="414.80" arrivalPos="4.00" duration="270.80" routeLength="328.17" timeLoss="41.47" maxSpeed="1.43" waitingTime="15.20"/>
    </personinfo>
    <personinfo id="pf_2.11" depart="396.00" type="ped" speedFactor="0.87" duration="28.00" waitingTime="0.00" timeLoss="2.78" traveltime="28.00">
        <walk depart="396.00" departPos="15.72" arrival="424.00" arrivalPos="4.00" duration="28.00" routeLength="30.33" timeLoss="2.78" maxSpeed="1.20" waitingTime="0.00"/>
    </personinfo>
    <tripinfo id="A1_1.2" depart="309.20" departLane="-793339796#2_1" departPos="5.10" departPosLat="0.00" departSpeed="22.10" departDelay="0.00" arrival="425.20" arrivalLane="-145894807#0_1" arrivalPos="260.97" arrivalPosLat="0.00" arrivalSpeed="6.59" duration="116.00" routeLength="1057.45" waitingTime="0.00" waitingCount="0" stopTime="0.00" timeLoss="3.44" rerouteNo="1" devices="tripinfo_A1_1.2 routing_A1_1.2" vType="car" speedFactor="0.80" vaporized=""/>