<?xml version="1.0" encoding="UTF-8"?>

<!-- generated on 2025-12-03 22:40:27 by Eclipse SUMO sumo Version 1.24.0
<sumoConfiguration xmlns:xsi="http://www.w3.org/2001/XMLSchema-instance" xsi:noNamespaceSchemaLocation="http://sumo.dlr.de/xsd/sumoConfiguration.xsd">

    <input>
        <net-file value="Olivarez_traci\network/baseline.net.xml"/>
        <route-files value="Olivarez_traci\demand\flows_slow_traffic.rou.xml"/>
        <additional-files value="Olivarez_traci\additionals/map.poly.xml,Olivarez_traci\ additionals/detectors.add.xml"/>
    </input>

    <output>
        <tripinfo-output value="Olivarez_traci\output_A2C_Baseline\SP_A2C_Baseline_Slow_trips.xml"/>
        <statistic-output value="Olivarez_traci\output_A2C_Baseline\SP_A2C_Baseline_Slow_stats.xml"/>
    </output>

    <time>
        <begin value="0"/>
        <end value="10800"/>
        <step-length value="0.1"/>
    </time>

    <processing>
        <lateral-resolution value="0.1"/>
        <collision.action value="none"/>
        <collision.check-junctions value="false"/>
        <collision.mingap-factor value="0"/>
    </processing>

    <report>
        <no-warnings value="true"/>
    </report>

    <traci_server>
        <remote-port value="49315"/>
    </traci_server>

    <gui_only>
        <delay value="0"/>
    </gui_only>

</sumoConfiguration>
-->

<tripinfos xmlns:xsi="http://www.w3.org/2001/XMLSchema-instance" xsi:noNamespaceSchemaLocation="http://sumo.dlr.de/xsd/tripinfo_file.xsd">
    <personinfo id="pf_2.0" depart="0.00" type="ped" speedFactor="0.88" duration="28.10" waitingTime="0.00" timeLoss="2.92" traveltime="28.10">
        <walk depart="0.00" departPos="15.09" arrival="28.10" arrivalPos="3.44" duration="28.10" routeLength="30.72" timeLoss="2.92" maxSpeed="1.22" waitingTime="0.00"/>
    </personinfo>
    <personinfo id="pf_2.1" depart="22.50" type="ped" speedFactor="1.08" duration="28.60" waitingTime="5.80" timeLoss="8.07" traveltime="28.60">
        <walk depart="22.50" departPos="15.09" arrival="51.10" arrivalPos="3.44" duration="28.60" routeLength="30.72" timeLoss="8.07" maxSpeed="1.50" waitingTime="5.80"/>
    </personinfo>
    <tripinfo id="A2_1.1" depart="16.40" departLane="-793339796#2_1" departPos="8.10" departPosLat="0.00" departSpeed="27.78" departDelay="0.00" arrival="57.90" arrivalLane="-440471861#0_2" arrivalPos="31.52" arrivalPosLat="0.00" arrivalSpeed="27.77" duration="41.50" routeLength="1078.27" waitingTime="0.00" waitingCount="0" stopTime="0.00" timeLoss="2.69" rerouteNo="1" devices="tripinfo_A2_1.1 routing_A2_1.1" vType="jeep" speedFactor="1.00" vaporized=""/>
    <tripinfo id="A2_1.0" depart="8.90" departLane="-793339796#2_1" departPos="5.10" departPosLat="0.00" departSpeed="29.35" departDelay="0.00" arrival="61.10" arrivalLane="-440471861#0_1" arrivalPos="31.52" arrivalPosLat="0.00" arrivalSpeed="29.31" duration="52.20" routeLength="1081.27" waitingTime="4.60" waitingCount="1" stopTime="0.00" timeLoss="15.29" rerouteNo="1" devices="tripinfo_A2_1.0 routing_A2_1.0" vType="car" speedFactor="1.06" vaporized=""/>
    <personinfo id="pf_2.2" depart="45.00" type="ped" speedFactor="0.99" duration="24.80" waitingTime="0.00" timeLoss="2.52" traveltime="24.80">
        <walk depart="45.00" departPos="15.09" arrival="69.80" arrivalPos="3.44" duration="24.80" routeLength="30.72" timeLoss="2.52" maxSpeed="1.38" waitingTime="0.00"/>
    </personinfo>
    <tripinfo id="D1_1.0" depart="1.20" departLane="140483224#1_1" departPos="5.10" departPosLat="0.00" departSpeed="27.86" departDelay="0.00" arrival="75.80" arrivalLane="-793339796#2_2" arrivalPos="82.50" arrivalPosLat="0.00" arrivalSpeed="27.78" duration="74.60" routeLength="1648.38" waitingTime="0.00" waitingCount="0" stopTime="0.00" timeLoss="13.19" rerouteNo="1" devices="tripinfo_D1_1.0 routing_D1_1.0" vType="car" speedFactor="1.00" vaporized=""/>
    <tripinfo id="A3_1.0" depart="31.50" departLane="-793339796#2_2" departPos="5.10" departPosLat="0.00" departSpeed="27.03" departDelay="0.50" arrival="77.10" arrivalLane="-140483224#1_2" arrivalPos="64.04" arrivalPosLat="0.00" arrivalSpeed="27.01" duration="45.60" routeLength="1080.94" waitingTime="0.00" waitingCount="0" stopTime="0.00" timeLoss="4.01" rerouteNo="1" devices="tripinfo_A3_1.0 routing_A3_1.0" vType="car" speedFactor="0.97" vaporized=""/>
    <tripinfo id="C3_1.0" depart="8.60" departLane="440471861#0_1" departPos="5.10" departPosLat="0.00" departSpeed="28.99" departDelay="0.00" arrival="101.50" arrivalLane="-140483224#1_2" arrivalPos="64.04" arrivalPosLat="0.00" arrivalSpeed="28.97" duration="92.90" routeLength="1052.78" waitingTime="45.90" waitingCount="1" stopTime="0.00" timeLoss="55.25" rerouteNo="1" devices="tripinfo_C3_1.0 routing_C3_1.0" vType="car" speedFactor="1.04" vaporized=""/>
    <tripinfo id="C3_1.1" depart="22.80" departLane="440471861#0_1" departPos="2.30" departPosLat="0.00" departSpeed="25.10" departDelay="0.00" arrival="103.50" arrivalLane="-140483224#1_1" arrivalPos="64.04" arrivalPosLat="-0.00" arrivalSpeed="24.98" duration="80.70" routeLength="1055.58" waitingTime="27.10" waitingCount="1" stopTime="0.00" timeLoss="37.06" rerouteNo="1" devices="tripinfo_C3_1.1 routing_C3_1.1" vType="motorcycle" speedFactor="0.90" vaporized=""/>
    <tripinfo id="C3_1.2" depart="47.20" departLane="440471861#0_1" departPos="5.10" departPosLat="0.00" departSpeed="30.59" departDelay="0.00" arrival="106.10" arrivalLane="-140483224#1_1" arrivalPos="64.04" arrivalPosLat="-0.00" arrivalSpeed="30.58" duration="58.90" routeLength="1052.78" waitingTime="5.40" waitingCount="1" stopTime="0.00" timeLoss="23.26" rerouteNo="1" devices="tripinfo_C3_1.2 routing_C3_1.2" vType="car" speedFactor="1.10" vaporized=""/>
    <personinfo id="pf_2.3" depart="67.50" type="ped" speedFactor="1.13" duration="39.50" waitingTime="17.70" timeLoss="19.87" traveltime="39.50">
        <walk depart="67.50" departPos="15.09" arrival="107.00" arrivalPos="3.44" duration="39.50" routeLength="30.72" timeLoss="19.87" maxSpeed="1.57" waitingTime="17.70"/>
    </personinfo>
    <personinfo id="pf_2.4" depart="90.00" type="ped" speedFactor="1.05" duration="23.50" waitingTime="0.00" timeLoss="2.47" traveltime="23.50">
        <walk depart="90.00" departPos="15.09" arrival="113.50" arrivalPos="3.44" duration="23.50" routeLength="30.72" timeLoss="2.47" maxSpeed="1.46" waitingTime="0.00"/>
    </personinfo>
    <personinfo id="pf_4.0" depart="0.00" type="ped" speedFactor="1.03" duration="115.20" waitingTime="0.00" timeLoss="11.34" traveltime="115.20">
        <walk depart="0.00" departPos="25.00" arrival="55.90" arrivalPos="29.11" duration="55.90" routeLength="72.15" timeLoss="5.39" maxSpeed="1.43" waitingTime="0.00"/>
        <walk depart="55.90" departPos="29.11" arrival="115.20" arrivalPos="29.05" duration="59.30" routeLength="76.20" timeLoss="5.95" maxSpeed="1.43" waitingTime="0.00"/>
    </personinfo>
    <tripinfo id="D3_1.0" depart="15.30" departLane="140483224#1_2" departPos="5.10" departPosLat="0.00" departSpeed="28.45" departDelay="0.00" arrival="121.80" arrivalLane="-440471861#0_2" arrivalPos="31.52" arrivalPosLat="0.00" arrivalSpeed="28.45" duration="106.50" routeLength="1067.97" waitingTime="58.70" waitingCount="1" stopTime="0.00" timeLoss="67.48" rerouteNo="1" devices="tripinfo_D3_1.0 routing_D3_1.0" vType="car" speedFactor="1.02" vaporized=""/>
    <tripinfo id="C1_1.0" depart="35.30" departLane="440471861#0_1" departPos="5.10" departPosLat="0.00" departSpeed="25.38" departDelay="0.00" arrival="137.80" arrivalLane="-793339796#2_2" arrivalPos="82.50" arrivalPosLat="0.00" arrivalSpeed="25.37" duration="102.50" routeLength="1653.99" waitingTime="14.00" waitingCount="1" stopTime="0.00" timeLoss="36.07" rerouteNo="1" devices="tripinfo_C1_1.0 routing_C1_1.0" vType="car" speedFactor="0.91" vaporized=""/>
    <personinfo id="pf_4.1" depart="22.50" type="ped" speedFactor="1.04" duration="115.40" waitingTime="1.60" timeLoss="13.07" traveltime="115.40">
        <walk depart="22.50" departPos="25.00" arrival="78.50" arrivalPos="29.11" duration="56.00" routeLength="72.15" timeLoss="6.23" maxSpeed="1.45" waitingTime="0.90"/>
        <walk depart="78.50" departPos="29.11" arrival="137.90" arrivalPos="29.05" duration="59.40" routeLength="76.20" timeLoss="6.84" maxSpeed="1.45" waitingTime="0.70"/>
    </personinfo>
    <personinfo id="pf_2.5" depart="112.50" type="ped" speedFactor="0.91" duration="26.80" waitingTime="0.00" timeLoss="2.61" traveltime="26.80">
        <walk depart="112.50" departPos="15.09" arrival="139.30" arrivalPos="3.44" duration="26.80" routeLength="30.72" timeLoss="2.61" maxSpeed="1.27" waitingTime="0.00"/>
    </personinfo>
    <tripinfo id="A2_1.2" depart="41.40" departLane="-793339796#2_1" departPos="5.10" departPosLat="0.00" departSpeed="28.78" departDelay="0.00" arrival="142.10" arrivalLane="-440471861#0_1" arrivalPos="31.52" arrivalPosLat="0.00" arrivalSpeed="28.77" duration="100.70" routeLength="1081.27" waitingTime="52.70" waitingCount="1" stopTime="0.00" timeLoss="63.08" rerouteNo="1" devices="tripinfo_A2_1.2 routing_A2_1.2" vType="car" speedFactor="1.04" vaporized=""/>
    <tripinfo id="C2_1.0" depart="40.30" departLane="440471861#0_2" departPos="12.10" departPosLat="0.00" departSpeed="27.78" departDelay="0.00" arrival="149.10" arrivalLane="-145894807#0_1" arrivalPos="260.95" arrivalPosLat="0.00" arrivalSpeed="8.30" duration="108.80" routeLength="1075.06" waitingTime="13.50" waitingCount="1" stopTime="0.00" timeLoss="23.79" rerouteNo="1" devices="tripinfo_C2_1.0 routing_C2_1.0" vType="bus" speedFactor="1.00" vaporized=""/>
    <tripinfo id="A2_1.3" depart="54.30" departLane="-793339796#2_1" departPos="7.20" departPosLat="0.00" departSpeed="25.39" departDelay="0.20" arrival="150.40" arrivalLane="-440471861#0_2" arrivalPos="31.52" arrivalPosLat="0.00" arrivalSpeed="25.35" duration="96.10" routeLength="1079.17" waitingTime="36.90" waitingCount="1" stopTime="0.00" timeLoss="53.52" rerouteNo="1" devices="tripinfo_A2_1.3 routing_A2_1.3" vType="truck" speedFactor="0.91" vaporized=""/>
    <tripinfo id="C1_1.1" depart="57.10" departLane="440471861#0_1" departPos="8.10" departPosLat="0.00" departSpeed="27.78" departDelay="0.00" arrival="151.00" arrivalLane="-793339796#2_2" arrivalPos="82.50" arrivalPosLat="-0.00" arrivalSpeed="24.43" duration="93.90" routeLength="1650.99" waitingTime="0.00" waitingCount="0" stopTime="0.00" timeLoss="33.36" rerouteNo="1" devices="tripinfo_C1_1.1 routing_C1_1.1" vType="jeep" speedFactor="1.00" vaporized=""/>
    <tripinfo id="C2_1.1" depart="54.60" departLane="440471861#0_2" departPos="5.10" departPosLat="0.00" departSpeed="34.31" departDelay="0.00" arrival="151.50" arrivalLane="-145894807#0_1" arrivalPos="260.95" arrivalPosLat="0.00" arrivalSpeed="10.20" duration="96.90" routeLength="1082.06" waitingTime="0.00" waitingCount="0" stopTime="0.00" timeLoss="27.79" rerouteNo="1" devices="tripinfo_C2_1.1 routing_C2_1.1" vType="car" speedFactor="1.24" vaporized=""/>
    <tripinfo id="A3_1.1" depart="61.00" departLane="-793339796#2_1" departPos="12.10" departPosLat="0.00" departSpeed="27.78" departDelay="0.00" arrival="151.60" arrivalLane="-140483224#1_2" arrivalPos="64.04" arrivalPosLat="0.00" arrivalSpeed="27.74" duration="90.60" routeLength="1073.94" waitingTime="29.00" waitingCount="1" stopTime="0.00" timeLoss="50.42" rerouteNo="1" devices="tripinfo_A3_1.1 routing_A3_1.1" vType="bus" speedFactor="1.00" vaporized=""/>
    <tripinfo id="C1_1.2" depart="63.70" departLane="440471861#0_1" departPos="2.30" departPosLat="0.00" departSpeed="25.73" departDelay="0.00" arrival="152.30" arrivalLane="-793339796#2_2" arrivalPos="82.50" arrivalPosLat="0.00" arrivalSpeed="25.49" duration="88.60" routeLength="1656.79" waitingTime="0.00" waitingCount="0" stopTime="0.00" timeLoss="22.96" rerouteNo="1" devices="tripinfo_C1_1.2 routing_C1_1.2" vType="tricycle" speedFactor="0.93" vaporized=""/>
    <personinfo id="pf_4.2" depart="45.00" type="ped" speedFactor="1.08" duration="109.50" waitingTime="0.00" timeLoss="10.61" traveltime="109.50">
        <walk depart="45.00" departPos="25.00" arrival="98.50" arrivalPos="29.11" duration="53.50" routeLength="72.15" timeLoss="5.41" maxSpeed="1.50" waitingTime="0.00"/>
        <walk depart="98.50" departPos="29.11" arrival="154.50" arrivalPos="29.05" duration="56.00" routeLength="76.20" timeLoss="5.21" maxSpeed="1.50" waitingTime="0.00"/>
    </personinfo>
    <personinfo id="pf_2.6" depart="135.00" type="ped" speedFactor="1.00" duration="24.60" waitingTime="0.00" timeLoss="2.58" traveltime="24.60">
        <walk depart="135.00" departPos="15.09" arrival="159.60" arrivalPos="3.44" duration="24.60" routeLength="30.72" timeLoss="2.58" maxSpeed="1.39" waitingTime="0.00"/>
    </personinfo>
    <tripinfo id="B2_1.0" depart="13.90" departLane="-361257727#0_1" departPos="5.10" departPosLat="0.00" departSpeed="7.98" departDelay="0.00" arrival="163.50" arrivalLane="-440471861#0_1" arrivalPos="31.52" arrivalPosLat="-0.00" arrivalSpeed="26.61" duration="149.60" routeLength="1397.68" waitingTime="17.80" waitingCount="1" stopTime="0.00" timeLoss="27.43" rerouteNo="1" devices="tripinfo_B2_1.0 routing_B2_1.0" vType="car" speedFactor="0.96" vaporized=""/>
    <tripinfo id="D1_1.2" depart="74.50" departLane="140483224#1_1" departPos="7.20" departPosLat="0.00" departSpeed="27.47" departDelay="0.00" arrival="168.70" arrivalLane="-793339796#2_2" arrivalPos="82.50" arrivalPosLat="0.00" arrivalSpeed="25.41" duration="94.20" routeLength="1646.28" waitingTime="0.50" waitingCount="1" stopTime="0.00" timeLoss="31.85" rerouteNo="1" devices="tripinfo_D1_1.2 routing_D1_1.2" vType="truck" speedFactor="0.99" vaporized=""/>
    <tripinfo id="D2_1.0" depart="67.30" departLane="140483224#1_1" departPos="5.10" departPosLat="0.00" departSpeed="29.37" departDelay="0.00" arrival="170.20" arrivalLane="-145894807#0_1" arrivalPos="260.95" arrivalPosLat="0.00" arrivalSpeed="8.72" duration="102.90" routeLength="1092.76" waitingTime="8.50" waitingCount="2" stopTime="0.00" timeLoss="22.19" rerouteNo="1" devices="tripinfo_D2_1.0 routing_D2_1.0" vType="car" speedFactor="1.06" vaporized=""/>
    <tripinfo id="D1_1.3" depart="92.30" departLane="140483224#1_1" departPos="5.10" departPosLat="0.00" departSpeed="33.02" departDelay="0.00" arrival="172.40" arrivalLane="-793339796#2_1" arrivalPos="82.50" arrivalPosLat="-0.00" arrivalSpeed="33.01" duration="80.10" routeLength="1648.38" waitingTime="0.00" waitingCount="0" stopTime="0.00" timeLoss="28.30" rerouteNo="1" devices="tripinfo_D1_1.3 routing_D1_1.3" vType="car" speedFactor="1.19" vaporized=""/>
    <tripinfo id="D1_1.1" depart="47.90" departLane="140483224#1_1" departPos="7.20" departPosLat="0.00" departSpeed="26.91" departDelay="0.00" arrival="173.30" arrivalLane="-793339796#2_2" arrivalPos="82.50" arrivalPosLat="0.00" arrivalSpeed="25.68" duration="125.40" routeLength="1646.28" waitingTime="24.40" waitingCount="1" stopTime="0.00" timeLoss="61.70" rerouteNo="1" devices="tripinfo_D1_1.1 routing_D1_1.1" vType="truck" speedFactor="0.97" vaporized=""/>
    <personinfo id="pf_4.3" depart="67.50" type="ped" speedFactor="0.99" duration="119.30" waitingTime="0.00" timeLoss="11.73" traveltime="119.30">
        <walk depart="67.50" departPos="25.00" arrival="125.60" arrivalPos="29.11" duration="58.10" routeLength="72.15" timeLoss="5.78" maxSpeed="1.38" waitingTime="0.00"/>
        <walk depart="125.60" departPos="29.11" arrival="186.80" arrivalPos="29.05" duration="61.20" routeLength="76.20" timeLoss="5.94" maxSpeed="1.38" waitingTime="0.00"/>
    </personinfo>
    <personinfo id="pf_2.7" depart="157.50" type="ped" speedFactor="1.03" duration="30.50" waitingTime="6.60" timeLoss="9.02" traveltime="30.50">
        <walk depart="157.50" departPos="15.09" arrival="188.00" arrivalPos="3.44" duration="30.50" routeLength="30.72" timeLoss="9.02" maxSpeed="1.43" waitingTime="6.60"/>
    </personinfo>
    <tripinfo id="C3_1.4" depart="109.30" departLane="440471861#0_1" departPos="8.10" departPosLat="0.00" departSpeed="27.78" departDelay="0.00" arrival="194.40" arrivalLane="-140483224#1_1" arrivalPos="64.04" arrivalPosLat="0.00" arrivalSpeed="27.74" duration="85.10" routeLength="1049.78" waitingTime="22.40" waitingCount="1" stopTime="0.00" timeLoss="45.94" rerouteNo="1" devices="tripinfo_C3_1.4 routing_C3_1.4" vType="jeep" speedFactor="1.00" vaporized=""/>
    <tripinfo id="C3_1.3" depart="87.10" departLane="440471861#0_1" departPos="7.20" departPosLat="0.00" departSpeed="29.74" departDelay="0.00" arrival="195.20" arrivalLane="-140483224#1_2" arrivalPos="64.04" arrivalPosLat="0.00" arrivalSpeed="29.72" duration="108.10" routeLength="1050.68" waitingTime="44.40" waitingCount="1" stopTime="0.00" timeLoss="71.50" rerouteNo="1" devices="tripinfo_C3_1.3 routing_C3_1.3" vType="truck" speedFactor="1.07" vaporized=""/>
    <tripinfo id="C3_1.5" depart="156.50" departLane="440471861#0_1" departPos="8.10" departPosLat="0.00" departSpeed="27.78" departDelay="0.00" arrival="205.20" arrivalLane="-140483224#1_2" arrivalPos="64.04" arrivalPosLat="0.00" arrivalSpeed="27.74" duration="48.70" routeLength="1049.78" waitingTime="0.00" waitingCount="0" stopTime="0.00" timeLoss="9.44" rerouteNo="1" devices="tripinfo_C3_1.5 routing_C3_1.5" vType="jeep" speedFactor="1.00" vaporized=""/>
    <tripinfo id="C1_1.4" depart="125.70" departLane="440471861#0_1" departPos="5.10" departPosLat="0.00" departSpeed="28.41" departDelay="0.00" arrival="212.80" arrivalLane="-793339796#2_1" arrivalPos="82.50" arrivalPosLat="-0.00" arrivalSpeed="28.36" duration="87.10" routeLength="1653.99" waitingTime="8.80" waitingCount="1" stopTime="0.00" timeLoss="27.78" rerouteNo="1" devices="tripinfo_C1_1.4 routing_C1_1.4" vType="car" speedFactor="1.02" vaporized=""/>
    <personinfo id="pf_2.8" depart="180.00" type="ped" speedFactor="0.98" duration="33.60" waitingTime="8.50" timeLoss="11.12" traveltime="33.60">
        <walk depart="180.00" departPos="15.09" arrival="213.60" arrivalPos="3.44" duration="33.60" routeLength="30.72" timeLoss="11.12" maxSpeed="1.37" waitingTime="8.50"/>
    </personinfo>
    <tripinfo id="C1_1.3" depart="82.10" departLane="440471861#0_1" departPos="5.10" departPosLat="0.00" departSpeed="24.54" departDelay="0.00" arrival="218.20" arrivalLane="-793339796#2_2" arrivalPos="82.50" arrivalPosLat="0.00" arrivalSpeed="24.46" duration="136.10" routeLength="1653.99" waitingTime="50.70" waitingCount="1" stopTime="0.00" timeLoss="67.50" rerouteNo="1" devices="tripinfo_C1_1.3 routing_C1_1.3" vType="car" speedFactor="0.88" vaporized=""/>
    <personinfo id="pf_4.4" depart="90.00" type="ped" speedFactor="0.98" duration="128.80" waitingTime="7.70" timeLoss="20.03" traveltime="128.80">
        <walk depart="90.00" departPos="25.00" arrival="148.90" arrivalPos="29.11" duration="58.90" routeLength="72.15" timeLoss="6.00" maxSpeed="1.36" waitingTime="0.10"/>
        <walk depart="148.90" departPos="29.11" arrival="218.80" arrivalPos="29.05" duration="69.90" routeLength="76.20" timeLoss="14.03" maxSpeed="1.36" waitingTime="7.60"/>
    </personinfo>
    <tripinfo id="A3_1.2" depart="143.80" departLane="-793339796#2_2" departPos="2.30" departPosLat="0.00" departSpeed="31.39" departDelay="16.70" arrival="224.50" arrivalLane="-140483224#1_2" arrivalPos="64.04" arrivalPosLat="0.00" arrivalSpeed="31.36" duration="80.70" routeLength="1083.74" waitingTime="34.40" waitingCount="1" stopTime="0.00" timeLoss="44.85" rerouteNo="1" devices="tripinfo_A3_1.2 routing_A3_1.2" vType="tricycle" speedFactor="1.13" vaporized=""/>
    <tripinfo id="A2_1.4" depart="143.80" departLane="-793339796#2_1" departPos="5.10" departPosLat="0.00" departSpeed="24.79" departDelay="18.00" arrival="225.10" arrivalLane="-440471861#0_1" arrivalPos="31.52" arrivalPosLat="0.00" arrivalSpeed="24.77" duration="81.30" routeLength="1081.27" waitingTime="28.40" waitingCount="1" stopTime="0.00" timeLoss="37.62" rerouteNo="1" devices="tripinfo_A2_1.4 routing_A2_1.4" vType="car" speedFactor="0.89" vaporized=""/>
    <tripinfo id="A2_1.5" depart="144.20" departLane="-793339796#2_1" departPos="5.10" departPosLat="0.00" departSpeed="21.04" departDelay="14.30" arrival="226.20" arrivalLane="-440471861#0_2" arrivalPos="31.52" arrivalPosLat="0.00" arrivalSpeed="26.56" duration="82.00" routeLength="1081.27" waitingTime="24.50" waitingCount="1" stopTime="0.00" timeLoss="41.25" rerouteNo="1" devices="tripinfo_A2_1.5 routing_A2_1.5" vType="car" speedFactor="0.96" vaporized=""/>
    <personinfo id="pf_2.9" depart="202.50" type="ped" speedFactor="0.94" duration="26.10" waitingTime="0.00" timeLoss="2.57" traveltime="26.10">
        <walk depart="202.50" departPos="15.09" arrival="228.60" arrivalPos="3.44" duration="26.10" routeLength="30.72" timeLoss="2.57" maxSpeed="1.31" waitingTime="0.00"/>
    </personinfo>
    <personinfo id="pf_4.5" depart="112.50" type="ped" speedFactor="1.08" duration="116.30" waitingTime="6.60" timeLoss="17.74" traveltime="116.30">
        <walk depart="112.50" departPos="25.00" arrival="167.20" arrivalPos="29.11" duration="54.70" routeLength="72.15" timeLoss="6.77" maxSpeed="1.51" waitingTime="1.30"/>
        <walk depart="167.20" departPos="29.11" arrival="228.80" arrivalPos="29.05" duration="61.60" routeLength="76.20" timeLoss="10.97" maxSpeed="1.51" waitingTime="5.30"/>
    </personinfo>
    <personinfo id="pf_4.6" depart="135.00" type="ped" speedFactor="1.24" duration="95.50" waitingTime="0.00" timeLoss="9.44" traveltime="95.50">
        <walk depart="135.00" departPos="25.00" arrival="181.40" arrivalPos="29.11" duration="46.40" routeLength="72.15" timeLoss="4.54" maxSpeed="1.72" waitingTime="0.00"/>
        <walk depart="181.40" departPos="29.11" arrival="230.50" arrivalPos="29.05" duration="49.10" routeLength="76.20" timeLoss="4.90" maxSpeed="1.72" waitingTime="0.00"/>
    </personinfo>
    <tripinfo id="A3_1.3" depart="173.20" departLane="-793339796#2_2" departPos="5.10" departPosLat="0.00" departSpeed="22.79" departDelay="0.00" arrival="231.00" arrivalLane="-140483224#1_2" arrivalPos="64.04" arrivalPosLat="0.00" arrivalSpeed="22.67" duration="57.80" routeLength="1080.94" waitingTime="0.00" waitingCount="0" stopTime="0.00" timeLoss="8.54" rerouteNo="1" devices="tripinfo_A3_1.3 routing_A3_1.3" vType="car" speedFactor="0.82" vaporized=""/>
    <tripinfo id="C1_1.5" depart="131.40" departLane="440471861#0_1" departPos="12.10" departPosLat="0.00" departSpeed="27.78" departDelay="0.00" arrival="234.60" arrivalLane="-793339796#2_2" arrivalPos="82.50" arrivalPosLat="0.00" arrivalSpeed="24.74" duration="103.20" routeLength="1646.99" waitingTime="0.00" waitingCount="0" stopTime="0.00" timeLoss="42.83" rerouteNo="1" devices="tripinfo_C1_1.5 routing_C1_1.5" vType="bus" speedFactor="1.00" vaporized=""/>
    <tripinfo id="B1_1.0" depart="75.60" departLane="-361257727#0_1" departPos="5.10" departPosLat="0.00" departSpeed="8.37" departDelay="0.00" arrival="238.70" arrivalLane="-793339796#2_1" arrivalPos="82.50" arrivalPosLat="-0.00" arrivalSpeed="27.81" duration="163.10" routeLength="1915.44" waitingTime="0.00" waitingCount="0" stopTime="0.00" timeLoss="29.12" rerouteNo="1" devices="tripinfo_B1_1.0 routing_B1_1.0" vType="car" speedFactor="1.00" vaporized=""/>
    <tripinfo id="C1_1.6" depart="142.00" departLane="440471861#0_1" departPos="7.20" departPosLat="0.00" departSpeed="24.83" departDelay="0.00" arrival="239.20" arrivalLane="-793339796#2_2" arrivalPos="82.50" arrivalPosLat="0.00" arrivalSpeed="24.80" duration="97.20" routeLength="1651.89" waitingTime="0.00" waitingCount="0" stopTime="0.00" timeLoss="29.43" rerouteNo="1" devices="tripinfo_C1_1.6 routing_C1_1.6" vType="truck" speedFactor="0.89" vaporized=""/>
    <personinfo id="pf_2.10" depart="225.00" type="ped" speedFactor="1.09" duration="23.90" waitingTime="1.10" timeLoss="3.55" traveltime="23.90">
        <walk depart="225.00" departPos="15.09" arrival="248.90" arrivalPos="3.44" duration="23.90" routeLength="30.72" timeLoss="3.55" maxSpeed="1.51" waitingTime="1.10"/>
    </personinfo>
    <tripinfo id="D1_1.4" depart="112.20" departLane="140483224#1_1" departPos="8.10" departPosLat="0.00" departSpeed="27.78" departDelay="0.00" arrival="249.90" arrivalLane="-793339796#2_1" arrivalPos="82.50" arrivalPosLat="-0.00" arrivalSpeed="24.12" duration="137.70" routeLength="1645.38" waitingTime="42.50" waitingCount="1" stopTime="0.00" timeLoss="76.13" rerouteNo="1" devices="tripinfo_D1_1.4 routing_D1_1.4" vType="jeep" speedFactor="1.00" vaporized=""/>
    <personinfo id="pf_1.0" depart="0.00" type="ped" speedFactor="1.06" duration="250.80" waitingTime="15.90" timeLoss="39.10" traveltime="250.80">
        <walk depart="0.00" departPos="25.00" arrival="250.80" arrivalPos="3.44" duration="250.80" routeLength="311.67" timeLoss="39.10" maxSpeed="1.47" waitingTime="15.90"/>
    </personinfo>
    <tripinfo id="B2_1.1" depart="62.00" departLane="-361257727#0_1" departPos="8.10" departPosLat="0.00" departSpeed="8.33" departDelay="0.00" arrival="252.10" arrivalLane="-440471861#0_1" arrivalPos="31.52" arrivalPosLat="-0.00" arrivalSpeed="27.74" duration="190.10" routeLength="1394.68" waitingTime="53.80" waitingCount="1" stopTime="0.00" timeLoss="73.40" rerouteNo="1" devices="tripinfo_B2_1.1 routing_B2_1.1" vType="jeep" speedFactor="1.00" vaporized=""/>
    <tripinfo id="D1_1.5" depart="117.10" departLane="140483224#1_1" departPos="8.10" departPosLat="0.00" departSpeed="27.78" departDelay="0.00" arrival="253.60" arrivalLane="-793339796#2_2" arrivalPos="82.50" arrivalPosLat="0.00" arrivalSpeed="24.63" duration="136.50" routeLength="1645.38" waitingTime="38.10" waitingCount="1" stopTime="0.00" timeLoss="74.99" rerouteNo="1" devices="tripinfo_D1_1.5 routing_D1_1.5" vType="jeep" speedFactor="1.00" vaporized=""/>
    <tripinfo id="D2_1.1" depart="93.70" departLane="140483224#1_1" departPos="5.10" departPosLat="0.00" departSpeed="24.64" departDelay="0.00" arrival="255.80" arrivalLane="-145894807#0_1" arrivalPos="260.95" arrivalPosLat="0.00" arrivalSpeed="7.33" duration="162.10" routeLength="1092.76" waitingTime="58.80" waitingCount="1" stopTime="0.00" timeLoss="65.92" rerouteNo="1" devices="tripinfo_D2_1.1 routing_D2_1.1" vType="car" speedFactor="0.89" vaporized=""/>
    <tripinfo id="B2_1.2" depart="129.20" departLane="-361257727#0_1" departPos="5.10" departPosLat="0.00" departSpeed="7.05" departDelay="0.00" arrival="256.70" arrivalLane="-440471861#0_1" arrivalPos="31.52" arrivalPosLat="-0.00" arrivalSpeed="26.72" duration="127.50" routeLength="1397.68" waitingTime="0.00" waitingCount="0" stopTime="0.00" timeLoss="6.34" rerouteNo="1" devices="tripinfo_B2_1.2 routing_B2_1.2" vType="car" speedFactor="0.97" vaporized=""/>
    <tripinfo id="A1_1.0" depart="161.50" departLane="-793339796#2_1" departPos="5.10" departPosLat="0.00" departSpeed="27.30" departDelay="3.60" arrival="257.70" arrivalLane="-145894807#0_1" arrivalPos="260.95" arrivalPosLat="0.00" arrivalSpeed="8.07" duration="96.20" routeLength="1056.72" waitingTime="0.00" waitingCount="0" stopTime="0.00" timeLoss="5.02" rerouteNo="1" devices="tripinfo_A1_1.0 routing_A1_1.0" vType="car" speedFactor="0.98" vaporized=""/>
    <tripinfo id="D2_1.2" depart="134.80" departLane="140483224#1_1" departPos="5.10" departPosLat="0.00" departSpeed="25.50" departDelay="0.00" arrival="262.10" arrivalLane="-145894807#0_1" arrivalPos="260.95" arrivalPosLat="0.00" arrivalSpeed="7.60" duration="127.30" routeLength="1092.76" waitingTime="16.60" waitingCount="1" stopTime="0.00" timeLoss="34.40" rerouteNo="1" devices="tripinfo_D2_1.2 routing_D2_1.2" vType="car" speedFactor="0.92" vaporized=""/>
    <tripinfo id="C3_1.6" depart="208.00" departLane="440471861#0_1" departPos="5.10" departPosLat="0.00" departSpeed="26.68" departDelay="0.00" arrival="264.60" arrivalLane="-140483224#1_2" arrivalPos="64.04" arrivalPosLat="0.00" arrivalSpeed="26.57" duration="56.60" routeLength="1052.78" waitingTime="6.70" waitingCount="1" stopTime="0.00" timeLoss="15.80" rerouteNo="1" devices="tripinfo_C3_1.6 routing_C3_1.6" vType="car" speedFactor="0.96" vaporized=""/>
    <tripinfo id="B3_1.0" depart="127.70" departLane="-361257727#0_1" departPos="8.10" departPosLat="0.00" departSpeed="8.33" departDelay="0.00" arrival="265.90" arrivalLane="-140483224#1_1" arrivalPos="64.04" arrivalPosLat="0.00" arrivalSpeed="27.72" duration="138.20" routeLength="1407.94" waitingTime="0.00" waitingCount="0" stopTime="0.00" timeLoss="21.31" rerouteNo="1" devices="tripinfo_B3_1.0 routing_B3_1.0" vType="jeep" speedFactor="1.00" vaporized=""/>
    <personinfo id="pf_4.7" depart="157.50" type="ped" speedFactor="1.06" duration="116.00" waitingTime="4.20" timeLoss="15.31" traveltime="116.00">
        <walk depart="157.50" departPos="25.00" arrival="216.10" arrivalPos="29.11" duration="58.60" routeLength="72.15" timeLoss="9.63" maxSpeed="1.47" waitingTime="4.20"/>
        <walk depart="216.10" departPos="29.11" arrival="273.50" arrivalPos="29.05" duration="57.40" routeLength="76.20" timeLoss="5.68" maxSpeed="1.47" waitingTime="0.00"/>
    </personinfo>
    <personinfo id="pf_2.11" depart="247.50" type="ped" speedFactor="0.90" duration="27.20" waitingTime="0.00" timeLoss="2.52" traveltime="27.20">
        <walk depart="247.50" departPos="15.09" arrival="274.70" arrivalPos="3.44" duration="27.20" routeLength="30.72" timeLoss="2.52" maxSpeed="1.24" waitingTime="0.00"/>
    </personinfo>
    <tripinfo id="D3_1.1" depart="179.60" departLane="140483224#1_2" departPos="5.10" departPosLat="0.00" departSpeed="29.50" departDelay="0.00" arrival="283.60" arrivalLane="-440471861#0_2" arrivalPos="31.52" arrivalPosLat="0.00" arrivalSpeed="29.49" duration="104.00" routeLength="1067.97" waitingTime="56.90" waitingCount="1" stopTime="0.00" timeLoss="66.34" rerouteNo="1" devices="tripinfo_D3_1.1 routing_D3_1.1" vType="car" speedFactor="1.06" vaporized=""/>