<?xml version="1.0" encoding="UTF-8"?>

<!-- generated on 2026-02-17 00:25:39 by Eclipse SUMO sumo Version 1.24.0
<sumoConfiguration xmlns:xsi="http://www.w3.org/2001/XMLSchema-instance" xsi:noNamespaceSchemaLocation="http://sumo.dlr.de/xsd/sumoConfiguration.xsd">

    <input>
        <net-file value="Olivarez_traci\network/baseline.net.xml"/>
        <route-files value="Olivarez_traci\demand\flows_normal_traffic.rou.xml"/>
        <additional-files value="Olivarez_traci\additionals/map.poly.xml,Olivarez_traci\ additionals/detectors.add.xml"/>
    </input>

    <output>
        <tripinfo-output value="Olivarez_traci\output_A2C_Baseline\SP_A2C_Baseline_Normal_trips.xml"/>
        <statistic-output value="Olivarez_traci\output_A2C_Baseline\SP_A2C_Baseline_Normal_stats.xml"/>
    </output>

    <time>
        <begin value="0"/>
        <end value="10800"/>
        <step-length value="0.1"/>
    </time>

    <processing>
        <lateral-resolution value="0.1"/>
        <collision.action value="none"/>
        <collision.check-junctions value="false"/>
        <collision.mingap-factor value="0"/>
    </processing>

    <report>
        <no-warnings value="true"/>
    </report>

    <traci_server>
        <remote-port value="61501"/>
    </traci_server>

    <gui_only>
        <delay value="0"/>
    </gui_only>

</sumoConfiguration>
-->

<tripinfos xmlns:xsi="http://www.w3.org/2001/XMLSchema-instance" xsi:noNamespaceSchemaLocation="http://sumo.dlr.de/xsd/tripinfo_file.xsd">
    <personinfo id="pf_2.0" depart="0.00" type="ped" speedFactor="1.03" duration="23.90" waitingTime="0.00" timeLoss="2.52" traveltime="23.90">
        <walk depart="0.00" departPos="15.09" arrival="23.90" arrivalPos="3.44" duration="23.90" routeLength="30.72" timeLoss="2.52" maxSpeed="1.44" waitingTime="0.00"/>
    </personinfo>
    <tripinfo id="D3_1.0" depart="15.30" departLane="140483224#1_2" departPos="5.10" departPosLat="0.00" departSpeed="27.91" departDelay="0.00" arrival="59.80" arrivalLane="-440471861#0_2" arrivalPos="31.52" arrivalPosLat="0.00" arrivalSpeed="27.88" duration="44.50" routeLength="1067.97" waitingTime="0.00" waitingCount="0" stopTime="0.00" timeLoss="4.68" rerouteNo="1" devices="tripinfo_D3_1.0 routing_D3_1.0" vType="car" speedFactor="1.00" vaporized=""/>
    <personinfo id="pf_2.1" depart="45.00" type="ped" speedFactor="1.00" duration="24.50" waitingTime="0.00" timeLoss="2.34" traveltime="24.50">
        <walk depart="45.00" departPos="15.09" arrival="69.50" arrivalPos="3.44" duration="24.50" routeLength="30.72" timeLoss="2.34" maxSpeed="1.39" waitingTime="0.00"/>
    </personinfo>
    <tripinfo id="A2_1.0" depart="8.90" departLane="-793339796#2_1" departPos="2.30" departPosLat="0.00" departSpeed="27.90" departDelay="0.00" arrival="72.70" arrivalLane="-440471861#0_1" arrivalPos="31.52" arrivalPosLat="-0.00" arrivalSpeed="27.64" duration="63.80" routeLength="1084.07" waitingTime="20.50" waitingCount="1" stopTime="0.00" timeLoss="24.88" rerouteNo="1" devices="tripinfo_A2_1.0 routing_A2_1.0" vType="motorcycle" speedFactor="1.00" vaporized=""/>
    <tripinfo id="A2_1.1" depart="16.40" departLane="-793339796#2_1" departPos="5.10" departPosLat="0.00" departSpeed="26.58" departDelay="0.00" arrival="77.30" arrivalLane="-440471861#0_2" arrivalPos="31.52" arrivalPosLat="0.00" arrivalSpeed="26.53" duration="60.90" routeLength="1081.27" waitingTime="10.30" waitingCount="1" stopTime="0.00" timeLoss="20.21" rerouteNo="1" devices="tripinfo_A2_1.1 routing_A2_1.1" vType="car" speedFactor="0.96" vaporized=""/>
    <tripinfo id="D1_1.0" depart="1.20" departLane="140483224#1_1" departPos="5.10" departPosLat="0.00" departSpeed="23.74" departDelay="0.00" arrival="84.70" arrivalLane="-793339796#2_2" arrivalPos="82.50" arrivalPosLat="0.00" arrivalSpeed="23.70" duration="83.50" routeLength="1648.38" waitingTime="0.00" waitingCount="0" stopTime="0.00" timeLoss="11.21" rerouteNo="1" devices="tripinfo_D1_1.0 routing_D1_1.0" vType="car" speedFactor="0.85" vaporized=""/>
    <tripinfo id="C1_1.0" depart="35.30" departLane="440471861#0_1" departPos="5.10" departPosLat="0.00" departSpeed="28.06" departDelay="0.00" arrival="121.70" arrivalLane="-793339796#2_1" arrivalPos="82.50" arrivalPosLat="-0.00" arrivalSpeed="28.03" duration="86.40" routeLength="1653.99" waitingTime="8.00" waitingCount="1" stopTime="0.00" timeLoss="26.36" rerouteNo="1" devices="tripinfo_C1_1.0 routing_C1_1.0" vType="car" speedFactor="1.01" vaporized=""/>
    <personinfo id="pf_2.2" depart="90.00" type="ped" speedFactor="1.02" duration="31.90" waitingTime="7.80" timeLoss="10.15" traveltime="31.90">
        <walk depart="90.00" departPos="15.09" arrival="121.90" arrivalPos="3.44" duration="31.90" routeLength="30.72" timeLoss="10.15" maxSpeed="1.41" waitingTime="7.80"/>
    </personinfo>
    <personinfo id="pf_4.0" depart="0.00" type="ped" speedFactor="0.95" duration="127.10" waitingTime="2.50" timeLoss="14.80" traveltime="127.10">
        <walk depart="0.00" departPos="25.00" arrival="60.60" arrivalPos="29.11" duration="60.60" routeLength="72.15" timeLoss="5.98" maxSpeed="1.32" waitingTime="0.00"/>
        <walk depart="60.60" departPos="29.11" arrival="127.10" arrivalPos="29.05" duration="66.50" routeLength="76.20" timeLoss="8.82" maxSpeed="1.32" waitingTime="2.50"/>
    </personinfo>
    <tripinfo id="C3_1.0" depart="22.80" departLane="440471861#0_1" departPos="8.10" departPosLat="0.00" departSpeed="27.78" departDelay="0.00" arrival="129.80" arrivalLane="-140483224#1_2" arrivalPos="64.04" arrivalPosLat="0.00" arrivalSpeed="27.76" duration="107.00" routeLength="1049.78" waitingTime="50.70" waitingCount="1" stopTime="0.00" timeLoss="67.81" rerouteNo="1" devices="tripinfo_C3_1.0 routing_C3_1.0" vType="jeep" speedFactor="1.00" vaporized=""/>
    <tripinfo id="C3_1.1" depart="87.10" departLane="440471861#0_1" departPos="12.10" departPosLat="0.00" departSpeed="27.78" departDelay="0.00" arrival="135.90" arrivalLane="-140483224#1_2" arrivalPos="64.04" arrivalPosLat="0.00" arrivalSpeed="27.76" duration="48.80" routeLength="1045.78" waitingTime="0.00" waitingCount="0" stopTime="0.00" timeLoss="9.74" rerouteNo="1" devices="tripinfo_C3_1.1 routing_C3_1.1" vType="bus" speedFactor="1.00" vaporized=""/>
    <tripinfo id="C2_1.0" depart="40.30" departLane="440471861#0_2" departPos="2.30" departPosLat="0.00" departSpeed="27.09" departDelay="0.00" arrival="139.60" arrivalLane="-145894807#0_1" arrivalPos="260.95" arrivalPosLat="0.00" arrivalSpeed="8.05" duration="99.30" routeLength="1084.86" waitingTime="0.80" waitingCount="1" stopTime="0.00" timeLoss="11.71" rerouteNo="1" devices="tripinfo_C2_1.0 routing_C2_1.0" vType="tricycle" speedFactor="0.98" vaporized=""/>
    <tripinfo id="C1_1.1" depart="63.70" departLane="440471861#0_1" departPos="12.10" departPosLat="0.00" departSpeed="27.78" departDelay="0.00" arrival="150.00" arrivalLane="-793339796#2_2" arrivalPos="82.50" arrivalPosLat="0.00" arrivalSpeed="24.64" duration="86.30" routeLength="1646.99" waitingTime="0.00" waitingCount="0" stopTime="0.00" timeLoss="25.92" rerouteNo="1" devices="tripinfo_C1_1.1 routing_C1_1.1" vType="bus" speedFactor="1.00" vaporized=""/>
    <personinfo id="pf_4.1" depart="45.00" type="ped" speedFactor="1.01" duration="117.00" waitingTime="0.00" timeLoss="11.55" traveltime="117.00">
        <walk depart="45.00" departPos="25.00" arrival="101.80" arrivalPos="29.11" duration="56.80" routeLength="72.15" timeLoss="5.51" maxSpeed="1.41" waitingTime="0.00"/>
        <walk depart="101.80" departPos="29.11" arrival="162.00" arrivalPos="29.05" duration="60.20" routeLength="76.20" timeLoss="6.04" maxSpeed="1.41" waitingTime="0.00"/>
    </personinfo>
    <personinfo id="pf_2.3" depart="135.00" type="ped" speedFactor="0.97" duration="27.10" waitingTime="1.50" timeLoss="4.23" traveltime="27.10">
        <walk depart="135.00" departPos="15.09" arrival="162.10" arrivalPos="3.44" duration="27.10" routeLength="30.72" timeLoss="4.23" maxSpeed="1.34" waitingTime="1.50"/>
    </personinfo>
    <tripinfo id="D1_1.1" depart="74.50" departLane="140483224#1_1" departPos="8.10" departPosLat="0.00" departSpeed="27.78" departDelay="0.00" arrival="164.60" arrivalLane="-793339796#2_2" arrivalPos="82.50" arrivalPosLat="0.00" arrivalSpeed="24.53" duration="90.10" routeLength="1645.38" waitingTime="0.00" waitingCount="0" stopTime="0.00" timeLoss="28.53" rerouteNo="1" devices="tripinfo_D1_1.1 routing_D1_1.1" vType="jeep" speedFactor="1.00" vaporized=""/>
    <tripinfo id="C1_1.2" depart="82.10" departLane="440471861#0_1" departPos="8.10" departPosLat="0.00" departSpeed="27.78" departDelay="0.00" arrival="168.60" arrivalLane="-793339796#2_2" arrivalPos="82.50" arrivalPosLat="0.00" arrivalSpeed="24.34" duration="86.50" routeLength="1650.99" waitingTime="0.00" waitingCount="0" stopTime="0.00" timeLoss="26.02" rerouteNo="1" devices="tripinfo_C1_1.2 routing_C1_1.2" vType="jeep" speedFactor="1.00" vaporized=""/>
    <tripinfo id="D1_1.2" depart="92.30" departLane="140483224#1_1" departPos="5.10" departPosLat="0.00" departSpeed="26.79" departDelay="0.00" arrival="170.20" arrivalLane="-793339796#2_2" arrivalPos="82.50" arrivalPosLat="0.00" arrivalSpeed="26.77" duration="77.90" routeLength="1648.38" waitingTime="0.00" waitingCount="0" stopTime="0.00" timeLoss="13.97" rerouteNo="1" devices="tripinfo_D1_1.2 routing_D1_1.2" vType="car" speedFactor="0.96" vaporized=""/>
    <tripinfo id="A3_1.0" depart="137.10" departLane="-793339796#2_2" departPos="5.10" departPosLat="0.00" departSpeed="26.39" departDelay="10.00" arrival="188.40" arrivalLane="-140483224#1_2" arrivalPos="64.04" arrivalPosLat="0.00" arrivalSpeed="26.27" duration="51.30" routeLength="1080.94" waitingTime="0.50" waitingCount="1" stopTime="0.00" timeLoss="8.74" rerouteNo="1" devices="tripinfo_A3_1.0 routing_A3_1.0" vType="car" speedFactor="0.95" vaporized=""/>
    <tripinfo id="A2_1.3" depart="137.40" departLane="-793339796#2_1" departPos="5.10" departPosLat="0.00" departSpeed="23.73" departDelay="7.50" arrival="189.40" arrivalLane="-440471861#0_2" arrivalPos="31.52" arrivalPosLat="0.00" arrivalSpeed="26.04" duration="52.00" routeLength="1081.27" waitingTime="0.00" waitingCount="0" stopTime="0.00" timeLoss="10.54" rerouteNo="1" devices="tripinfo_A2_1.3 routing_A2_1.3" vType="car" speedFactor="0.94" vaporized=""/>
    <tripinfo id="D2_1.0" depart="93.70" departLane="140483224#1_2" departPos="7.20" departPosLat="0.00" departSpeed="28.45" departDelay="0.00" arrival="191.90" arrivalLane="-145894807#0_1" arrivalPos="260.95" arrivalPosLat="-0.00" arrivalSpeed="8.51" duration="98.20" routeLength="1090.66" waitingTime="3.70" waitingCount="1" stopTime="0.00" timeLoss="14.92" rerouteNo="1" devices="tripinfo_D2_1.0 routing_D2_1.0" vType="truck" speedFactor="1.02" vaporized=""/>
    <tripinfo id="A2_1.2" depart="137.10" departLane="-793339796#2_1" departPos="8.10" departPosLat="0.00" departSpeed="27.78" departDelay="11.30" arrival="195.90" arrivalLane="-440471861#0_1" arrivalPos="31.52" arrivalPosLat="0.00" arrivalSpeed="27.73" duration="58.80" routeLength="1078.27" waitingTime="1.10" waitingCount="1" stopTime="0.00" timeLoss="19.98" rerouteNo="1" devices="tripinfo_A2_1.2 routing_A2_1.2" vType="jeep" speedFactor="1.00" vaporized=""/>
    <tripinfo id="B2_1.0" depart="62.00" departLane="-361257727#0_1" departPos="5.10" departPosLat="0.00" departSpeed="7.79" departDelay="0.00" arrival="197.60" arrivalLane="-440471861#0_1" arrivalPos="31.52" arrivalPosLat="-0.00" arrivalSpeed="25.87" duration="135.60" routeLength="1397.68" waitingTime="0.00" waitingCount="0" stopTime="0.00" timeLoss="10.45" rerouteNo="1" devices="tripinfo_B2_1.0 routing_B2_1.0" vType="car" speedFactor="0.93" vaporized=""/>
    <personinfo id="pf_2.4" depart="180.00" type="ped" speedFactor="1.15" duration="23.00" waitingTime="1.50" timeLoss="3.73" traveltime="23.00">
        <walk depart="180.00" departPos="15.09" arrival="203.00" arrivalPos="3.44" duration="23.00" routeLength="30.72" timeLoss="3.73" maxSpeed="1.59" waitingTime="1.50"/>
    </personinfo>
    <tripinfo id="D1_1.3" depart="117.10" departLane="140483224#1_1" departPos="7.20" departPosLat="0.00" departSpeed="25.89" departDelay="0.00" arrival="209.30" arrivalLane="-793339796#2_2" arrivalPos="82.50" arrivalPosLat="0.00" arrivalSpeed="25.38" duration="92.20" routeLength="1646.28" waitingTime="0.00" waitingCount="0" stopTime="0.00" timeLoss="26.17" rerouteNo="1" devices="tripinfo_D1_1.3 routing_D1_1.3" vType="truck" speedFactor="0.93" vaporized=""/>
    <personinfo id="pf_4.2" depart="90.00" type="ped" speedFactor="0.97" duration="122.60" waitingTime="0.00" timeLoss="12.48" traveltime="122.60">
        <walk depart="90.00" departPos="25.00" arrival="149.70" arrivalPos="29.11" duration="59.70" routeLength="72.15" timeLoss="6.14" maxSpeed="1.35" waitingTime="0.00"/>
        <walk depart="149.70" departPos="29.11" arrival="212.60" arrivalPos="29.05" duration="62.90" routeLength="76.20" timeLoss="6.33" maxSpeed="1.35" waitingTime="0.00"/>
    </personinfo>
    <tripinfo id="D2_1.1" depart="134.80" departLane="140483224#1_1" departPos="8.10" departPosLat="0.00" departSpeed="27.78" departDelay="0.00" arrival="223.60" arrivalLane="-145894807#0_1" arrivalPos="260.95" arrivalPosLat="0.00" arrivalSpeed="8.31" duration="88.80" routeLength="1089.76" waitingTime="0.00" waitingCount="0" stopTime="0.00" timeLoss="3.60" rerouteNo="1" devices="tripinfo_D2_1.1 routing_D2_1.1" vType="jeep" speedFactor="1.00" vaporized=""/>
    <tripinfo id="B1_1.0" depart="75.60" departLane="-361257727#0_1" departPos="5.10" departPosLat="0.00" departSpeed="8.25" departDelay="0.00" arrival="226.60" arrivalLane="-793339796#2_2" arrivalPos="82.50" arrivalPosLat="0.00" arrivalSpeed="27.52" duration="151.00" routeLength="1915.44" waitingTime="0.00" waitingCount="0" stopTime="0.00" timeLoss="15.13" rerouteNo="1" devices="tripinfo_B1_1.0 routing_B1_1.0" vType="car" speedFactor="0.99" vaporized=""/>
    <personinfo id="pf_1.0" depart="0.00" type="ped" speedFactor="1.06" duration="235.40" waitingTime="0.00" timeLoss="23.70" traveltime="235.40">
        <walk depart="0.00" departPos="25.00" arrival="235.40" arrivalPos="3.44" duration="235.40" routeLength="311.67" timeLoss="23.70" maxSpeed="1.47" waitingTime="0.00"/>
    </personinfo>
    <tripinfo id="C3_1.2" depart="156.50" departLane="440471861#0_1" departPos="8.10" departPosLat="0.00" departSpeed="27.78" departDelay="0.00" arrival="242.80" arrivalLane="-140483224#1_2" arrivalPos="64.04" arrivalPosLat="0.00" arrivalSpeed="27.75" duration="86.30" routeLength="1049.78" waitingTime="24.00" waitingCount="1" stopTime="0.00" timeLoss="47.11" rerouteNo="1" devices="tripinfo_C3_1.2 routing_C3_1.2" vType="jeep" speedFactor="1.00" vaporized=""/>
    <personinfo id="pf_2.5" depart="225.00" type="ped" speedFactor="0.98" duration="26.60" waitingTime="1.40" timeLoss="3.93" traveltime="26.60">
        <walk depart="225.00" departPos="15.09" arrival="251.60" arrivalPos="3.44" duration="26.60" routeLength="30.72" timeLoss="3.93" maxSpeed="1.36" waitingTime="1.40"/>
    </personinfo>
    <tripinfo id="C1_1.3" depart="142.00" departLane="440471861#0_1" departPos="8.10" departPosLat="0.00" departSpeed="27.78" departDelay="0.00" arrival="253.10" arrivalLane="-793339796#2_2" arrivalPos="82.50" arrivalPosLat="0.00" arrivalSpeed="24.45" duration="111.10" routeLength="1650.99" waitingTime="12.10" waitingCount="1" stopTime="0.00" timeLoss="50.56" rerouteNo="1" devices="tripinfo_C1_1.3 routing_C1_1.3" vType="jeep" speedFactor="1.00" vaporized=""/>
    <tripinfo id="C3_1.3" depart="208.00" departLane="440471861#0_1" departPos="2.30" departPosLat="0.00" departSpeed="26.97" departDelay="0.00" arrival="253.70" arrivalLane="-140483224#1_2" arrivalPos="64.04" arrivalPosLat="0.00" arrivalSpeed="26.96" duration="45.70" routeLength="1055.58" waitingTime="0.00" waitingCount="0" stopTime="0.00" timeLoss="5.03" rerouteNo="1" devices="tripinfo_C3_1.3 routing_C3_1.3" vType="tricycle" speedFactor="0.97" vaporized=""/>
    <personinfo id="pf_4.3" depart="135.00" type="ped" speedFactor="0.99" duration="119.90" waitingTime="0.00" timeLoss="11.98" traveltime="119.90">
        <walk depart="135.00" departPos="25.00" arrival="193.20" arrivalPos="29.11" duration="58.20" routeLength="72.15" timeLoss="5.71" maxSpeed="1.37" waitingTime="0.00"/>
        <walk depart="193.20" departPos="29.11" arrival="254.90" arrivalPos="29.05" duration="61.70" routeLength="76.20" timeLoss="6.27" maxSpeed="1.37" waitingTime="0.00"/>
    </personinfo>
    <tripinfo id="A1_1.0" depart="157.90" departLane="-793339796#2_1" departPos="2.30" departPosLat="0.00" departSpeed="26.36" departDelay="0.00" arrival="255.10" arrivalLane="-145894807#0_1" arrivalPos="260.95" arrivalPosLat="0.00" arrivalSpeed="7.68" duration="97.20" routeLength="1059.52" waitingTime="0.00" waitingCount="0" stopTime="0.00" timeLoss="2.80" rerouteNo="1" devices="tripinfo_A1_1.0 routing_A1_1.0" vType="motorcycle" speedFactor="0.95" vaporized=""/>
    <tripinfo id="B2_1.1" depart="129.20" departLane="-361257727#0_1" departPos="8.10" departPosLat="0.00" departSpeed="8.33" departDelay="0.00" arrival="256.90" arrivalLane="-440471861#0_1" arrivalPos="31.52" arrivalPosLat="-0.00" arrivalSpeed="27.76" duration="127.70" routeLength="1394.68" waitingTime="0.00" waitingCount="0" stopTime="0.00" timeLoss="10.99" rerouteNo="1" devices="tripinfo_B2_1.1 routing_B2_1.1" vType="jeep" speedFactor="1.00" vaporized=""/>
    <tripinfo id="D3_1.1" depart="201.70" departLane="140483224#1_2" departPos="5.10" departPosLat="0.00" departSpeed="22.64" departDelay="0.00" arrival="286.50" arrivalLane="-440471861#0_2" arrivalPos="31.52" arrivalPosLat="0.00" arrivalSpeed="22.57" duration="84.80" routeLength="1067.97" waitingTime="28.80" waitingCount="1" stopTime="0.00" timeLoss="35.73" rerouteNo="1" devices="tripinfo_D3_1.1 routing_D3_1.1" vType="car" speedFactor="0.82" vaporized=""/>
    <tripinfo id="D3_1.2" depart="206.80" departLane="140483224#1_2" departPos="5.10" departPosLat="0.00" departSpeed="29.15" departDelay="0.00" arrival="287.80" arrivalLane="-440471861#0_2" arrivalPos="31.52" arrivalPosLat="0.00" arrivalSpeed="25.06" duration="81.00" routeLength="1067.97" waitingTime="27.60" waitingCount="1" stopTime="0.00" timeLoss="42.82" rerouteNo="1" devices="tripinfo_D3_1.2 routing_D3_1.2" vType="car" speedFactor="1.05" vaporized=""/>
    <tripinfo id="B2_1.2" depart="150.30" departLane="-361257727#0_1" departPos="2.30" departPosLat="0.00" departSpeed="7.32" departDelay="0.00" arrival="289.30" arrivalLane="-440471861#0_1" arrivalPos="31.52" arrivalPosLat="-0.00" arrivalSpeed="24.34" duration="139.00" routeLength="1400.48" waitingTime="0.00" waitingCount="0" stopTime="0.00" timeLoss="5.35" rerouteNo="1" devices="tripinfo_B2_1.2 routing_B2_1.2" vType="tricycle" speedFactor="0.88" vaporized=""/>
    <tripinfo id="D3_1.3" depart="212.70" departLane="140483224#1_2" departPos="8.10" departPosLat="0.00" departSpeed="27.78" departDelay="0.00" arrival="292.50" arrivalLane="-440471861#0_2" arrivalPos="31.52" arrivalPosLat="0.00" arrivalSpeed="27.73" duration="79.80" routeLength="1064.97" waitingTime="22.30" waitingCount="1" stopTime="0.00" timeLoss="39.90" rerouteNo="1" devices="tripinfo_D3_1.3 routing_D3_1.3" vType="jeep" speedFactor="1.00" vaporized=""/>
    <personinfo id="pf_2.6" depart="270.00" type="ped" speedFactor="1.00" duration="25.70" waitingTime="1.20" timeLoss="3.62" traveltime="25.70">
        <walk depart="270.00" departPos="15.09" arrival="295.70" arrivalPos="3.44" duration="25.70" routeLength="30.72" timeLoss="3.62" maxSpeed="1.39" waitingTime="1.20"/>
    </personinfo>
    <personinfo id="pf_4.4" depart="180.00" type="ped" speedFactor="1.02" duration="115.80" waitingTime="0.00" timeLoss="11.49" traveltime="115.80">
        <walk depart="180.00" departPos="25.00" arrival="236.30" arrivalPos="29.11" duration="56.30" routeLength="72.15" timeLoss="5.57" maxSpeed="1.42" waitingTime="0.00"/>
        <walk depart="236.30" departPos="29.11" arrival="295.80" arrivalPos="29.05" duration="59.50" routeLength="76.20" timeLoss="5.92" maxSpeed="1.42" waitingTime="0.00"/>
    </personinfo>
    <tripinfo id="A3_1.1" depart="193.40" departLane="-793339796#2_1" departPos="2.30" departPosLat="0.00" departSpeed="28.47" departDelay="0.00" arrival="300.20" arrivalLane="-140483224#1_2" arrivalPos="64.04" arrivalPosLat="0.00" arrivalSpeed="28.42" duration="106.80" routeLength="1083.74" waitingTime="57.80" waitingCount="1" stopTime="0.00" timeLoss="67.23" rerouteNo="1" devices="tripinfo_A3_1.1 routing_A3_1.1" vType="tricycle" speedFactor="1.02" vaporized=""/>
    <tripinfo id="D2_1.2" depart="185.20" departLane="140483224#1_1" departPos="5.10" departPosLat="0.00" departSpeed="28.21" departDelay="0.00" arrival="300.80" arrivalLane="-145894807#0_1" arrivalPos="260.95" arrivalPosLat="0.00" arrivalSpeed="8.43" duration="115.60" routeLength="1092.76" waitingTime="24.10" waitingCount="1" stopTime="0.00" timeLoss="31.60" rerouteNo="1" devices="tripinfo_D2_1.2 routing_D2_1.2" vType="car" speedFactor="1.02" vaporized=""/>
    <tripinfo id="A3_1.2" depart="214.60" departLane="-793339796#2_2" departPos="5.10" departPosLat="0.00" departSpeed="27.11" departDelay="0.00" arrival="303.00" arrivalLane="-140483224#1_2" arrivalPos="64.04" arrivalPosLat="0.00" arrivalSpeed="27.03" duration="88.40" routeLength="1080.94" waitingTime="30.40" waitingCount="1" stopTime="0.00" timeLoss="46.98" rerouteNo="1" devices="tripinfo_A3_1.2 routing_A3_1.2" vType="car" speedFactor="0.98" vaporized=""/>
    <tripinfo id="A3_1.3" depart="222.10" departLane="-793339796#2_1" departPos="2.30" departPosLat="0.00" departSpeed="24.80" departDelay="0.00" arrival="305.00" arrivalLane="-140483224#1_1" arrivalPos="64.04" arrivalPosLat="0.00" arrivalSpeed="24.70" duration="82.90" routeLength="1083.74" waitingTime="22.40" waitingCount="2" stopTime="0.00" timeLoss="37.54" rerouteNo="1" devices="tripinfo_A3_1.3 routing_A3_1.3" vType="motorcycle" speedFactor="0.89" vaporized=""/>
    <tripinfo id="A3_1.4" depart="229.40" departLane="-793339796#2_2" departPos="8.10" departPosLat="0.00" departSpeed="27.78" departDelay="1.80" arrival="307.90" arrivalLane="-140483224#1_2" arrivalPos="64.04" arrivalPosLat="0.00" arrivalSpeed="27.73" duration="78.50" routeLength="1077.94" waitingTime="16.50" waitingCount="1" stopTime="0.00" timeLoss="38.19" rerouteNo="1" devices="tripinfo_A3_1.4 routing_A3_1.4" vType="jeep" speedFactor="1.00" vaporized=""/>
    <tripinfo id="A3_1.5" depart="257.00" departLane="-793339796#2_2" departPos="5.10" departPosLat="0.00" departSpeed="23.93" departDelay="1.60" arrival="310.40" arrivalLane="-140483224#1_2" arrivalPos="64.04" arrivalPosLat="0.00" arrivalSpeed="23.89" duration="53.40" routeLength="1080.94" waitingTime="0.00" waitingCount="0" stopTime="0.00" timeLoss="6.42" rerouteNo="1" devices="tripinfo_A3_1.5 routing_A3_1.5" vType="car" speedFactor="0.86" vaporized=""/>
    <personinfo id="pf_1.1" depart="45.00" type="ped" speedFactor="0.94" duration="266.10" waitingTime="0.00" timeLoss="26.94" traveltime="266.10">
        <walk depart="45.00" departPos="25.00" arrival="311.10" arrivalPos="3.44" duration="266.10" routeLength="311.67" timeLoss="26.94" maxSpeed="1.30" waitingTime="0.00"/>
    </personinfo>
    <tripinfo id="D2_1.3" depart="223.20" departLane="140483224#1_1" departPos="2.30" departPosLat="0.00" departSpeed="26.42" departDelay="0.00" arrival="320.30" arrivalLane="-145894807#0_1" arrivalPos="260.95" arrivalPosLat="0.00" arrivalSpeed="7.89" duration="97.10" routeLength="1095.56" waitingTime="3.70" waitingCount="1" stopTime="0.00" timeLoss="7.32" rerouteNo="1" devices="tripinfo_D2_1.3 routing_D2_1.3" vType="motorcycle" speedFactor="0.95" vaporized=""/>
    <tripinfo id="D1_1.4" depart="236.00" departLane="140483224#1_1" departPos="7.20" departPosLat="0.00" departSpeed="26.48" departDelay="0.00" arrival="323.90" arrivalLane="-793339796#2_2" arrivalPos="82.50" arrivalPosLat="0.00" arrivalSpeed="25.21" duration="87.90" routeLength="1646.28" waitingTime="0.00" waitingCount="0" stopTime="0.00" timeLoss="23.25" rerouteNo="1" devices="tripinfo_D1_1.4 routing_D1_1.4" vType="truck" speedFactor="0.95" vaporized=""/>
    <tripinfo id="C1_1.4" depart="227.40" departLane="440471861#0_1" departPos="2.30" departPosLat="0.00" departSpeed="29.51" departDelay="0.00" arrival="333.10" arrivalLane="-793339796#2_2" arrivalPos="82.50" arrivalPosLat="0.00" arrivalSpeed="29.36" duration="105.70" routeLength="1656.79" waitingTime="40.20" waitingCount="1" stopTime="0.00" timeLoss="48.51" rerouteNo="1" devices="tripinfo_C1_1.4 routing_C1_1.4" vType="motorcycle" speedFactor="1.06" vaporized=""/>
    <personinfo id="pf_2.7" depart="315.00" type="ped" speedFactor="1.04" duration="24.80" waitingTime="1.30" timeLoss="3.59" traveltime="24.80">
        <walk depart="315.00" departPos="15.09" arrival="339.80" arrivalPos="3.44" duration="24.80" routeLength="30.72" timeLoss="3.59" maxSpeed="1.45" waitingTime="1.30"/>
    </personinfo>
    <personinfo id="pf_1.2" depart="90.00" type="ped" speedFactor="1.01" duration="250.10" waitingTime="2.70" timeLoss="28.00" traveltime="250.10">
        <walk depart="90.00" departPos="25.00" arrival="340.10" arrivalPos="3.44" duration="250.10" routeLength="311.67" timeLoss="28.00" maxSpeed="1.40" waitingTime="2.70"/>
    </personinfo>
    <personinfo id="pf_4.5" depart="225.00" type="ped" speedFactor="1.01" duration="116.90" waitingTime="0.00" timeLoss="11.22" traveltime="116.90">
        <walk depart="225.00" departPos="25.00" arrival="281.90" arrivalPos="29.11" duration="56.90" routeLength="72.15" timeLoss="5.50" maxSpeed="1.40" waitingTime="0.00"/>
        <walk depart="281.90" departPos="29.11" arrival="341.90" arrivalPos="29.05" duration="60.00" routeLength="76.20" timeLoss="5.72" maxSpeed="1.40" waitingTime="0.00"/>
    </personinfo>
    <tripinfo id="C3_1.4" depart="303.70" departLane="440471861#0_1" departPos="5.10" departPosLat="0.00" departSpeed="26.86" departDelay="0.00" arrival="349.40" arrivalLane="-140483224#1_2" arrivalPos="64.04" arrivalPosLat="0.00" arrivalSpeed="26.85" duration="45.70" routeLength="1052.78" waitingTime="0.00" waitingCount="0" stopTime="0.00" timeLoss="5.08" rerouteNo="1" devices="tripinfo_C3_1.4 routing_C3_1.4" vType="car" speedFactor="0.97" vaporized=""/>
    <tripinfo id="A1_1.1" depart="257.00" departLane="-793339796#2_1" departPos="8.10" departPosLat="0.00" departSpeed="27.78" departDelay="5.70" arrival="350.90" arrivalLane="-145894807#0_1" arrivalPos="260.95" arrivalPosLat="0.00" arrivalSpeed="8.33" duration="93.90" routeLength="1053.72" waitingTime="0.00" waitingCount="0" stopTime="0.00" timeLoss="4.48" rerouteNo="1" devices="tripinfo_A1_1.1 routing_A1_1.1" vType="jeep" speedFactor="1.00" vaporized=""/>
    <personinfo id="pf_1.3" depart="135.00" type="ped" speedFactor="1.08" duration="230.30" waitingTime="0.00" timeLoss="23.04" traveltime="230.30">
        <walk depart="135.00" departPos="25.00" arrival="365.30" arrivalPos="3.44" duration="230.30" routeLength="311.67" timeLoss="23.04" maxSpeed="1.50" waitingTime="0.00"/>
    </personinfo>
    <tripinfo id="C1_1.5" depart="294.40" departLane="440471861#0_1" departPos="8.10" departPosLat="0.00" departSpeed="27.78" departDelay="0.00" arrival="368.90" arrivalLane="-793339796#2_2" arrivalPos="82.50" arrivalPosLat="0.00" arrivalSpeed="24.71" duration="74.50" routeLength="1650.99" waitingTime="0.00" waitingCount="0" stopTime="0.00" timeLoss="13.98" rerouteNo="1" devices="tripinfo_C1_1.5 routing_C1_1.5" vType="jeep" speedFactor="1.00" vaporized=""/>
    <tripinfo id="D1_1.5" depart="315.20" departLane="140483224#1_1" departPos="5.10" departPosLat="0.00" departSpeed="31.67" departDelay="0.00" arrival="384.20" arrivalLane="-793339796#2_2" arrivalPos="82.50" arrivalPosLat="0.00" arrivalSpeed="31.61" duration="69.00" routeLength="1648.38" waitingTime="0.00" waitingCount="0" stopTime="0.00" timeLoss="14.94" rerouteNo="1" devices="tripinfo_D1_1.5 routing_D1_1.5" vType="car" speedFactor="1.14" vaporized=""/>
    <personinfo id="pf_2.8" depart="360.00" type="ped" speedFactor="1.01" duration="24.50" waitingTime="0.00" timeLoss="2.54" traveltime="24.50">
        <walk depart="360.00" departPos="15.09" arrival="384.50" arrivalPos="3.44" duration="24.50" routeLength="30.72" timeLoss="2.54" maxSpeed="1.40" waitingTime="0.00"/>
    </personinfo>
    <personinfo id="pf_4.6" depart="270.00" type="ped" speedFactor="0.97" duration="121.70" waitingTime="0.00" timeLoss="11.88" traveltime="121.70">
        <walk depart="270.00" departPos="25.00" arrival="329.10" arrivalPos="29.11" duration="59.10" routeLength="72.15" timeLoss="5.69" maxSpeed="1.35" waitingTime="0.00"/>
        <walk depart="329.10" departPos="29.11" arrival="391.70" arrivalPos="29.05" duration="62.60" routeLength="76.20" timeLoss="6.19" maxSpeed="1.35" waitingTime="0.00"/>
    </personinfo>
    <personinfo id="pf_3.1" depart="45.00" type="ped" speedFactor="1.08" duration="361.20" waitingTime="12.70" timeLoss="47.79" traveltime="361.20">
        <walk depart="45.00" departPos="25.00" arrival="156.30" arrivalPos="19.11" duration="111.30" routeLength="132.56" timeLoss="22.74" maxSpeed="1.50" waitingTime="12.70"/>
        <walk depart="156.30" departPos="19.11" arrival="406.20" arrivalPos="22.72" duration="249.90" routeLength="336.55" timeLoss="25.05" maxSpeed="1.50" waitingTime="0.00"/>
    </personinfo>
    <tripinfo id="A1_1.2" depart="317.00" departLane="-793339796#2_1" departPos="7.20" departPosLat="0.00" departSpeed="29.37" departDelay="7.80" arrival="406.30" arrivalLane="-145894807#0_1" arrivalPos="260.95" arrivalPosLat="0.00" arrivalSpeed="8.75" duration="89.30" routeLength="1054.62" waitingTime="0.00" waitingCount="0" stopTime="0.00" timeLoss="4.61" rerouteNo="1" devices="tripinfo_A1_1.2 routing_A1_1.2" vType="truck" speedFactor="1.06" vaporized=""/>