<?xml version="1.0" encoding="UTF-8"?>

<!-- generated on 2026-02-17 00:40:28 by Eclipse SUMO sumo Version 1.24.0
<sumoConfiguration xmlns:xsi="http://www.w3.org/2001/XMLSchema-instance" xsi:noNamespaceSchemaLocation="http://sumo.dlr.de/xsd/sumoConfiguration.xsd">

    <input>
        <net-file value="Olivarez_traci\network/baseline.net.xml"/>
        <route-files value="Olivarez_traci\demand\flows_traffic_jam.rou.xml"/>
        <additional-files value="Olivarez_traci\additionals/map.poly.xml,Olivarez_traci\ additionals/detectors.add.xml"/>
    </input>

    <output>
        <tripinfo-output value="Olivarez_traci\output_A2C_Baseline\SP_A2C_Baseline_Jam_trips.xml"/>
        <statistic-output value="Olivarez_traci\output_A2C_Baseline\SP_A2C_Baseline_Jam_stats.xml"/>
    </output>

    <time>
        <begin value="0"/>
        <end value="10800"/>
        <step-length value="0.1"/>
    </time>

    <processing>
        <lateral-resolution value="0.1"/>
        <collision.action value="none"/>
        <collision.check-junctions value="false"/>
        <collision.mingap-factor value="0"/>
    </processing>

    <report>
        <no-warnings value="true"/>
    </report>

    <traci_server>
        <remote-port value="61867"/>
    </traci_server>

    <gui_only>
        <delay value="0"/>
    </gui_only>

</sumoConfiguration>
-->

<tripinfos xmlns:xsi="http://www.w3.org/2001/XMLSchema-instance" xsi:noNamespaceSchemaLocation="http://sumo.dlr.de/xsd/tripinfo_file.xsd">
    <personinfo id="pf_2.0" depart="0.00" type="ped" speedFactor="0.83" duration="29.90" waitingTime="0.00" timeLoss="3.11" traveltime="29.90">
        <walk depart="0.00" departPos="15.09" arrival="29.90" arrivalPos="3.44" duration="29.90" routeLength="30.72" timeLoss="3.11" maxSpeed="1.15" waitingTime="0.00"/>
    </personinfo>
    <personinfo id="pf_2.1" depart="15.00" type="ped" speedFactor="0.87" duration="42.40" waitingTime="14.30" timeLoss="17.05" traveltime="42.40">
        <walk depart="15.00" departPos="15.09" arrival="57.40" arrivalPos="3.44" duration="42.40" routeLength="30.72" timeLoss="17.05" maxSpeed="1.21" waitingTime="14.30"/>
    </personinfo>
    <personinfo id="pf_2.2" depart="30.00" type="ped" speedFactor="0.92" duration="28.00" waitingTime="0.90" timeLoss="3.88" traveltime="28.00">
        <walk depart="30.00" departPos="15.09" arrival="58.00" arrivalPos="3.44" duration="28.00" routeLength="30.72" timeLoss="3.88" maxSpeed="1.27" waitingTime="0.90"/>
    </personinfo>
    <tripinfo id="D3_1.0" depart="15.30" departLane="140483224#1_1" departPos="2.30" departPosLat="0.00" departSpeed="26.42" departDelay="0.00" arrival="61.50" arrivalLane="-440471861#0_2" arrivalPos="31.52" arrivalPosLat="0.00" arrivalSpeed="26.40" duration="46.20" routeLength="1070.77" waitingTime="0.00" waitingCount="0" stopTime="0.00" timeLoss="4.03" rerouteNo="1" devices="tripinfo_D3_1.0 routing_D3_1.0" vType="tricycle" speedFactor="0.95" vaporized=""/>
    <personinfo id="pf_2.3" depart="45.00" type="ped" speedFactor="0.95" duration="26.00" waitingTime="0.00" timeLoss="2.69" traveltime="26.00">
        <walk depart="45.00" departPos="15.09" arrival="71.00" arrivalPos="3.44" duration="26.00" routeLength="30.72" timeLoss="2.69" maxSpeed="1.32" waitingTime="0.00"/>
    </personinfo>
    <tripinfo id="A2_1.0" depart="3.00" departLane="-793339796#2_1" departPos="5.10" departPosLat="0.00" departSpeed="29.34" departDelay="0.00" arrival="76.10" arrivalLane="-440471861#0_1" arrivalPos="31.52" arrivalPosLat="0.00" arrivalSpeed="29.31" duration="73.10" routeLength="1081.27" waitingTime="25.60" waitingCount="1" stopTime="0.00" timeLoss="36.19" rerouteNo="1" devices="tripinfo_A2_1.0 routing_A2_1.0" vType="car" speedFactor="1.06" vaporized=""/>
    <tripinfo id="A2_1.2" depart="8.90" departLane="-793339796#2_2" departPos="5.10" departPosLat="0.00" departSpeed="27.37" departDelay="0.00" arrival="77.00" arrivalLane="-440471861#0_2" arrivalPos="31.52" arrivalPosLat="0.00" arrivalSpeed="27.27" duration="68.10" routeLength="1081.27" waitingTime="18.70" waitingCount="1" stopTime="0.00" timeLoss="28.57" rerouteNo="1" devices="tripinfo_A2_1.2 routing_A2_1.2" vType="car" speedFactor="0.99" vaporized=""/>
    <tripinfo id="A2_1.1" depart="6.90" departLane="-793339796#2_1" departPos="5.10" departPosLat="0.00" departSpeed="27.02" departDelay="0.00" arrival="78.20" arrivalLane="-440471861#0_1" arrivalPos="31.52" arrivalPosLat="-0.00" arrivalSpeed="27.00" duration="71.30" routeLength="1081.27" waitingTime="16.70" waitingCount="1" stopTime="0.00" timeLoss="31.22" rerouteNo="1" devices="tripinfo_A2_1.1 routing_A2_1.1" vType="car" speedFactor="0.97" vaporized=""/>
    <tripinfo id="D1_1.0" depart="1.20" departLane="140483224#1_1" departPos="5.10" departPosLat="0.00" departSpeed="24.93" departDelay="0.00" arrival="81.80" arrivalLane="-793339796#2_2" arrivalPos="82.50" arrivalPosLat="0.00" arrivalSpeed="24.81" duration="80.60" routeLength="1648.38" waitingTime="0.00" waitingCount="0" stopTime="0.00" timeLoss="11.87" rerouteNo="1" devices="tripinfo_D1_1.0 routing_D1_1.0" vType="car" speedFactor="0.90" vaporized=""/>
    <tripinfo id="A2_1.3" depart="16.40" departLane="-793339796#2_1" departPos="7.20" departPosLat="0.00" departSpeed="26.64" departDelay="0.00" arrival="85.30" arrivalLane="-440471861#0_1" arrivalPos="31.52" arrivalPosLat="0.00" arrivalSpeed="26.63" duration="68.90" routeLength="1079.17" waitingTime="7.00" waitingCount="1" stopTime="0.00" timeLoss="28.38" rerouteNo="1" devices="tripinfo_A2_1.3 routing_A2_1.3" vType="truck" speedFactor="0.96" vaporized=""/>
    <tripinfo id="A3_1.0" depart="15.20" departLane="-793339796#2_2" departPos="8.10" departPosLat="0.00" departSpeed="27.78" departDelay="0.00" arrival="85.90" arrivalLane="-140483224#1_2" arrivalPos="64.04" arrivalPosLat="0.00" arrivalSpeed="27.75" duration="70.70" routeLength="1077.94" waitingTime="8.70" waitingCount="1" stopTime="0.00" timeLoss="30.39" rerouteNo="1" devices="tripinfo_A3_1.0 routing_A3_1.0" vType="jeep" speedFactor="1.00" vaporized=""/>
    <tripinfo id="A3_1.1" depart="31.00" departLane="-793339796#2_1" departPos="12.10" departPosLat="0.00" departSpeed="27.78" departDelay="0.00" arrival="87.30" arrivalLane="-140483224#1_2" arrivalPos="64.04" arrivalPosLat="0.00" arrivalSpeed="27.72" duration="56.30" routeLength="1073.94" waitingTime="0.00" waitingCount="0" stopTime="0.00" timeLoss="16.05" rerouteNo="1" devices="tripinfo_A3_1.1 routing_A3_1.1" vType="bus" speedFactor="1.00" vaporized=""/>
    <personinfo id="pf_2.4" depart="60.00" type="ped" speedFactor="1.13" duration="41.40" waitingTime="19.50" timeLoss="21.86" traveltime="41.40">
        <walk depart="60.00" departPos="15.09" arrival="101.40" arrivalPos="3.44" duration="41.40" routeLength="30.72" timeLoss="21.86" maxSpeed="1.57" waitingTime="19.50"/>
    </personinfo>
    <personinfo id="pf_2.5" depart="75.00" type="ped" speedFactor="0.93" duration="29.60" waitingTime="2.90" timeLoss="5.85" traveltime="29.60">
        <walk depart="75.00" departPos="15.09" arrival="104.60" arrivalPos="3.44" duration="29.60" routeLength="30.72" timeLoss="5.85" maxSpeed="1.29" waitingTime="2.90"/>
    </personinfo>
    <personinfo id="pf_4.0" depart="0.00" type="ped" speedFactor="1.11" duration="106.90" waitingTime="0.00" timeLoss="10.70" traveltime="106.90">
        <walk depart="0.00" departPos="25.00" arrival="52.00" arrivalPos="29.11" duration="52.00" routeLength="72.15" timeLoss="5.21" maxSpeed="1.54" waitingTime="0.00"/>
        <walk depart="52.00" departPos="29.11" arrival="106.90" arrivalPos="29.05" duration="54.90" routeLength="76.20" timeLoss="5.49" maxSpeed="1.54" waitingTime="0.00"/>
    </personinfo>
    <tripinfo id="D2_1.0" depart="25.10" departLane="140483224#1_1" departPos="2.30" departPosLat="0.00" departSpeed="28.06" departDelay="0.00" arrival="110.50" arrivalLane="-145894807#0_1" arrivalPos="260.95" arrivalPosLat="0.00" arrivalSpeed="8.33" duration="85.40" routeLength="1095.56" waitingTime="0.00" waitingCount="0" stopTime="0.00" timeLoss="0.84" rerouteNo="1" devices="tripinfo_D2_1.0 routing_D2_1.0" vType="tricycle" speedFactor="1.01" vaporized=""/>
    <personinfo id="pf_2.6" depart="90.00" type="ped" speedFactor="1.18" duration="20.70" waitingTime="0.00" timeLoss="1.93" traveltime="20.70">
        <walk depart="90.00" departPos="15.09" arrival="110.70" arrivalPos="3.44" duration="20.70" routeLength="30.72" timeLoss="1.93" maxSpeed="1.64" waitingTime="0.00"/>
    </personinfo>
    <tripinfo id="C1_1.0" depart="6.60" departLane="440471861#0_1" departPos="5.10" departPosLat="0.00" departSpeed="27.96" departDelay="0.00" arrival="123.40" arrivalLane="-793339796#2_1" arrivalPos="82.50" arrivalPosLat="-0.00" arrivalSpeed="27.86" duration="116.80" routeLength="1653.99" waitingTime="37.20" waitingCount="1" stopTime="0.00" timeLoss="56.54" rerouteNo="1" devices="tripinfo_C1_1.0 routing_C1_1.0" vType="car" speedFactor="1.01" vaporized=""/>
    <tripinfo id="C3_1.0" depart="6.90" departLane="440471861#0_1" departPos="2.30" departPosLat="0.00" departSpeed="21.32" departDelay="0.00" arrival="124.10" arrivalLane="-140483224#1_1" arrivalPos="64.04" arrivalPosLat="-0.00" arrivalSpeed="29.08" duration="117.20" routeLength="1055.58" waitingTime="68.30" waitingCount="2" stopTime="0.00" timeLoss="79.91" rerouteNo="1" devices="tripinfo_C3_1.0 routing_C3_1.0" vType="motorcycle" speedFactor="1.06" vaporized=""/>
    <personinfo id="pf_2.7" depart="105.00" type="ped" speedFactor="1.15" duration="21.30" waitingTime="0.00" timeLoss="2.14" traveltime="21.30">
        <walk depart="105.00" departPos="15.09" arrival="126.30" arrivalPos="3.44" duration="21.30" routeLength="30.72" timeLoss="2.14" maxSpeed="1.60" waitingTime="0.00"/>
    </personinfo>
    <tripinfo id="C1_1.1" depart="30.30" departLane="440471861#0_1" departPos="5.10" departPosLat="0.00" departSpeed="26.25" departDelay="0.00" arrival="127.60" arrivalLane="-793339796#2_2" arrivalPos="82.50" arrivalPosLat="0.00" arrivalSpeed="26.13" duration="97.30" routeLength="1653.99" waitingTime="8.30" waitingCount="1" stopTime="0.00" timeLoss="33.12" rerouteNo="1" devices="tripinfo_C1_1.1 routing_C1_1.1" vType="car" speedFactor="0.94" vaporized=""/>
    <tripinfo id="B2_1.0" depart="13.90" departLane="-361257727#0_1" departPos="2.30" departPosLat="0.00" departSpeed="8.68" departDelay="0.00" arrival="130.30" arrivalLane="-440471861#0_1" arrivalPos="31.52" arrivalPosLat="-0.00" arrivalSpeed="28.84" duration="116.40" routeLength="1400.48" waitingTime="0.00" waitingCount="0" stopTime="0.00" timeLoss="3.74" rerouteNo="1" devices="tripinfo_B2_1.0 routing_B2_1.0" vType="motorcycle" speedFactor="1.04" vaporized=""/>
    <tripinfo id="C1_1.2" depart="35.30" departLane="440471861#0_1" departPos="2.30" departPosLat="0.00" departSpeed="31.62" departDelay="0.00" arrival="130.90" arrivalLane="-793339796#2_1" arrivalPos="82.50" arrivalPosLat="-0.00" arrivalSpeed="31.60" duration="95.60" routeLength="1656.79" waitingTime="5.80" waitingCount="1" stopTime="0.00" timeLoss="42.23" rerouteNo="1" devices="tripinfo_C1_1.2 routing_C1_1.2" vType="tricycle" speedFactor="1.14" vaporized=""/>
    <tripinfo id="C3_1.3" depart="47.20" departLane="440471861#0_1" departPos="2.30" departPosLat="0.00" departSpeed="29.34" departDelay="0.00" arrival="131.80" arrivalLane="-140483224#1_1" arrivalPos="64.04" arrivalPosLat="0.00" arrivalSpeed="29.09" duration="84.60" routeLength="1055.58" waitingTime="26.60" waitingCount="1" stopTime="0.00" timeLoss="47.35" rerouteNo="1" devices="tripinfo_C3_1.3 routing_C3_1.3" vType="motorcycle" speedFactor="1.06" vaporized=""/>
    <tripinfo id="C3_1.4" depart="51.90" departLane="440471861#0_1" departPos="5.10" departPosLat="0.00" departSpeed="29.67" departDelay="0.00" arrival="135.10" arrivalLane="-140483224#1_1" arrivalPos="64.04" arrivalPosLat="-0.00" arrivalSpeed="29.59" duration="83.20" routeLength="1052.78" waitingTime="21.10" waitingCount="1" stopTime="0.00" timeLoss="46.39" rerouteNo="1" devices="tripinfo_C3_1.4 routing_C3_1.4" vType="car" speedFactor="1.07" vaporized=""/>
    <tripinfo id="C3_1.1" depart="8.60" departLane="440471861#0_1" departPos="12.10" departPosLat="0.00" departSpeed="16.81" departDelay="0.00" arrival="136.60" arrivalLane="-140483224#1_2" arrivalPos="64.04" arrivalPosLat="0.00" arrivalSpeed="27.77" duration="128.00" routeLength="1045.78" waitingTime="58.00" waitingCount="1" stopTime="0.00" timeLoss="89.00" rerouteNo="1" devices="tripinfo_C3_1.1 routing_C3_1.1" vType="bus" speedFactor="1.00" vaporized=""/>
    <personinfo id="pf_4.1" depart="15.00" type="ped" speedFactor="1.02" duration="122.10" waitingTime="5.20" timeLoss="16.91" traveltime="122.10">
        <walk depart="15.00" departPos="25.00" arrival="71.70" arrivalPos="29.11" duration="56.70" routeLength="72.15" timeLoss="5.54" maxSpeed="1.41" waitingTime="0.00"/>
        <walk depart="71.70" departPos="29.11" arrival="137.10" arrivalPos="29.05" duration="65.40" routeLength="76.20" timeLoss="11.37" maxSpeed="1.41" waitingTime="5.20"/>
    </personinfo>
    <tripinfo id="C3_1.2" depart="22.80" departLane="440471861#0_1" departPos="7.20" departPosLat="0.00" departSpeed="27.71" departDelay="0.00" arrival="138.00" arrivalLane="-140483224#1_2" arrivalPos="64.04" arrivalPosLat="0.00" arrivalSpeed="27.67" duration="115.20" routeLength="1050.68" waitingTime="48.50" waitingCount="2" stopTime="0.00" timeLoss="75.95" rerouteNo="1" devices="tripinfo_C3_1.2 routing_C3_1.2" vType="truck" speedFactor="1.00" vaporized=""/>
    <tripinfo id="C1_1.3" depart="56.20" departLane="440471861#0_1" departPos="8.10" departPosLat="0.00" departSpeed="27.78" departDelay="0.00" arrival="139.70" arrivalLane="-793339796#2_2" arrivalPos="82.50" arrivalPosLat="0.00" arrivalSpeed="24.50" duration="83.50" routeLength="1650.99" waitingTime="0.00" waitingCount="0" stopTime="0.00" timeLoss="22.99" rerouteNo="1" devices="tripinfo_C1_1.3 routing_C1_1.3" vType="jeep" speedFactor="1.00" vaporized=""/>
    <tripinfo id="C3_1.5" depart="54.60" departLane="440471861#0_1" departPos="7.20" departPosLat="0.00" departSpeed="28.29" departDelay="0.00" arrival="141.40" arrivalLane="-140483224#1_2" arrivalPos="64.04" arrivalPosLat="0.00" arrivalSpeed="28.27" duration="86.80" routeLength="1050.68" waitingTime="17.90" waitingCount="1" stopTime="0.00" timeLoss="48.27" rerouteNo="1" devices="tripinfo_C3_1.5 routing_C3_1.5" vType="truck" speedFactor="1.02" vaporized=""/>
    <tripinfo id="C1_1.4" depart="57.10" departLane="440471861#0_1" departPos="8.10" departPosLat="0.00" departSpeed="26.01" departDelay="0.00" arrival="143.50" arrivalLane="-793339796#2_2" arrivalPos="82.50" arrivalPosLat="0.00" arrivalSpeed="24.03" duration="86.40" routeLength="1650.99" waitingTime="0.00" waitingCount="0" stopTime="0.00" timeLoss="25.80" rerouteNo="1" devices="tripinfo_C1_1.4 routing_C1_1.4" vType="jeep" speedFactor="1.00" vaporized=""/>
    <tripinfo id="C2_1.0" depart="40.30" departLane="440471861#0_2" departPos="5.10" departPosLat="0.00" departSpeed="26.65" departDelay="0.00" arrival="144.10" arrivalLane="-145894807#0_1" arrivalPos="260.95" arrivalPosLat="0.00" arrivalSpeed="7.90" duration="103.80" routeLength="1082.06" waitingTime="0.00" waitingCount="0" stopTime="0.00" timeLoss="14.92" rerouteNo="1" devices="tripinfo_C2_1.0 routing_C2_1.0" vType="car" speedFactor="0.96" vaporized=""/>
    <tripinfo id="C3_1.6" depart="70.30" departLane="440471861#0_1" departPos="5.10" departPosLat="0.00" departSpeed="23.65" departDelay="0.00" arrival="144.20" arrivalLane="-140483224#1_2" arrivalPos="64.04" arrivalPosLat="0.00" arrivalSpeed="23.65" duration="73.90" routeLength="1052.78" waitingTime="5.80" waitingCount="1" stopTime="0.00" timeLoss="27.72" rerouteNo="1" devices="tripinfo_C3_1.6 routing_C3_1.6" vType="car" speedFactor="0.85" vaporized=""/>
    <tripinfo id="C1_1.5" depart="63.70" departLane="440471861#0_1" departPos="5.10" departPosLat="0.00" departSpeed="28.30" departDelay="0.00" arrival="144.80" arrivalLane="-793339796#2_2" arrivalPos="82.50" arrivalPosLat="0.00" arrivalSpeed="25.54" duration="81.10" routeLength="1653.99" waitingTime="0.00" waitingCount="0" stopTime="0.00" timeLoss="21.55" rerouteNo="1" devices="tripinfo_C1_1.5 routing_C1_1.5" vType="car" speedFactor="1.02" vaporized=""/>
    <tripinfo id="C2_1.1" depart="54.60" departLane="440471861#0_2" departPos="5.10" departPosLat="0.00" departSpeed="27.21" departDelay="0.00" arrival="146.00" arrivalLane="-145894807#0_1" arrivalPos="260.95" arrivalPosLat="0.00" arrivalSpeed="8.03" duration="91.40" routeLength="1082.06" waitingTime="0.00" waitingCount="0" stopTime="0.00" timeLoss="4.34" rerouteNo="1" devices="tripinfo_C2_1.1 routing_C2_1.1" vType="car" speedFactor="0.98" vaporized=""/>
    <tripinfo id="C3_1.7" depart="87.10" departLane="440471861#0_1" departPos="8.10" departPosLat="0.00" departSpeed="27.78" departDelay="0.00" arrival="146.50" arrivalLane="-140483224#1_1" arrivalPos="64.04" arrivalPosLat="-0.00" arrivalSpeed="27.75" duration="59.40" routeLength="1049.78" waitingTime="0.00" waitingCount="0" stopTime="0.00" timeLoss="20.21" rerouteNo="1" devices="tripinfo_C3_1.7 routing_C3_1.7" vType="jeep" speedFactor="1.00" vaporized=""/>
    <personinfo id="pf_4.2" depart="30.00" type="ped" speedFactor="1.01" duration="117.70" waitingTime="0.50" timeLoss="12.02" traveltime="117.70">
        <walk depart="30.00" departPos="25.00" arrival="87.60" arrivalPos="29.11" duration="57.60" routeLength="72.15" timeLoss="6.20" maxSpeed="1.40" waitingTime="0.50"/>
        <walk depart="87.60" departPos="29.11" arrival="147.70" arrivalPos="29.05" duration="60.10" routeLength="76.20" timeLoss="5.82" maxSpeed="1.40" waitingTime="0.00"/>
    </personinfo>
    <tripinfo id="C1_1.6" depart="82.10" departLane="440471861#0_1" departPos="7.20" departPosLat="0.00" departSpeed="27.04" departDelay="0.00" arrival="163.40" arrivalLane="-793339796#2_2" arrivalPos="82.50" arrivalPosLat="0.00" arrivalSpeed="25.35" duration="81.30" routeLength="1651.89" waitingTime="0.00" waitingCount="0" stopTime="0.00" timeLoss="19.07" rerouteNo="1" devices="tripinfo_C1_1.6 routing_C1_1.6" vType="truck" speedFactor="0.97" vaporized=""/>
    <personinfo id="pf_4.4" depart="60.00" type="ped" speedFactor="1.05" duration="115.80" waitingTime="2.70" timeLoss="13.73" traveltime="115.80">
        <walk depart="60.00" departPos="25.00" arrival="115.30" arrivalPos="29.11" duration="55.30" routeLength="72.15" timeLoss="5.66" maxSpeed="1.45" waitingTime="0.00"/>
        <walk depart="115.30" departPos="29.11" arrival="175.80" arrivalPos="29.05" duration="60.50" routeLength="76.20" timeLoss="8.07" maxSpeed="1.45" waitingTime="2.70"/>
    </personinfo>
    <tripinfo id="D3_1.1" depart="94.70" departLane="140483224#1_2" departPos="5.10" departPosLat="0.00" departSpeed="19.69" departDelay="0.00" arrival="181.30" arrivalLane="-440471861#0_2" arrivalPos="31.52" arrivalPosLat="-0.00" arrivalSpeed="29.81" duration="86.60" routeLength="1067.97" waitingTime="24.60" waitingCount="2" stopTime="0.00" timeLoss="49.35" rerouteNo="1" devices="tripinfo_D3_1.1 routing_D3_1.1" vType="car" speedFactor="1.08" vaporized=""/>
    <tripinfo id="D1_1.1" depart="47.90" departLane="140483224#1_1" departPos="5.10" departPosLat="0.00" departSpeed="31.78" departDelay="0.00" arrival="182.30" arrivalLane="-793339796#2_2" arrivalPos="82.50" arrivalPosLat="0.00" arrivalSpeed="31.66" duration="134.40" routeLength="1648.38" waitingTime="57.40" waitingCount="1" stopTime="0.00" timeLoss="80.49" rerouteNo="1" devices="tripinfo_D1_1.1 routing_D1_1.1" vType="car" speedFactor="1.14" vaporized=""/>
    <tripinfo id="B2_1.1" depart="62.00" departLane="-361257727#0_1" departPos="5.10" departPosLat="0.00" departSpeed="8.32" departDelay="0.00" arrival="184.80" arrivalLane="-440471861#0_1" arrivalPos="31.52" arrivalPosLat="-0.00" arrivalSpeed="27.73" duration="122.80" routeLength="1397.68" waitingTime="0.00" waitingCount="0" stopTime="0.00" timeLoss="5.65" rerouteNo="1" devices="tripinfo_B2_1.1 routing_B2_1.1" vType="car" speedFactor="1.00" vaporized=""/>
    <tripinfo id="A1_1.0" depart="91.90" departLane="-793339796#2_1" departPos="8.10" departPosLat="0.00" departSpeed="27.78" departDelay="7.90" arrival="185.80" arrivalLane="-145894807#0_1" arrivalPos="260.95" arrivalPosLat="0.00" arrivalSpeed="8.29" duration="93.90" routeLength="1053.72" waitingTime="0.00" waitingCount="0" stopTime="0.00" timeLoss="4.47" rerouteNo="1" devices="tripinfo_A1_1.0 routing_A1_1.0" vType="jeep" speedFactor="1.00" vaporized=""/>
    <tripinfo id="D3_1.2" depart="121.80" departLane="140483224#1_1" departPos="7.20" departPosLat="0.00" departSpeed="27.42" departDelay="0.00" arrival="189.90" arrivalLane="-440471861#0_2" arrivalPos="31.52" arrivalPosLat="0.00" arrivalSpeed="27.39" duration="68.10" routeLength="1065.87" waitingTime="11.60" waitingCount="1" stopTime="0.00" timeLoss="27.67" rerouteNo="1" devices="tripinfo_D3_1.2 routing_D3_1.2" vType="truck" speedFactor="0.99" vaporized=""/>
    <tripinfo id="D3_1.3" depart="128.50" departLane="140483224#1_1" departPos="7.20" departPosLat="0.00" departSpeed="26.19" departDelay="0.00" arrival="191.70" arrivalLane="-440471861#0_2" arrivalPos="31.52" arrivalPosLat="0.00" arrivalSpeed="26.16" duration="63.20" routeLength="1065.87" waitingTime="4.80" waitingCount="1" stopTime="0.00" timeLoss="20.86" rerouteNo="1" devices="tripinfo_D3_1.3 routing_D3_1.3" vType="truck" speedFactor="0.94" vaporized=""/>
    <personinfo id="pf_2.9" depart="135.00" type="ped" speedFactor="1.17" duration="56.90" waitingTime="35.70" timeLoss="38.02" traveltime="56.90">
        <walk depart="135.00" departPos="15.09" arrival="191.90" arrivalPos="3.44" duration="56.90" routeLength="30.72" timeLoss="38.02" maxSpeed="1.63" waitingTime="35.70"/>
    </personinfo>
    <tripinfo id="D1_1.2" depart="74.50" departLane="140483224#1_1" departPos="2.30" departPosLat="0.00" departSpeed="26.46" departDelay="0.00" arrival="193.70" arrivalLane="-793339796#2_2" arrivalPos="82.50" arrivalPosLat="0.00" arrivalSpeed="26.40" duration="119.20" routeLength="1651.18" waitingTime="28.10" waitingCount="1" stopTime="0.00" timeLoss="54.34" rerouteNo="1" devices="tripinfo_D1_1.2 routing_D1_1.2" vType="tricycle" speedFactor="0.95" vaporized=""/>
    <personinfo id="pf_2.8" depart="120.00" type="ped" speedFactor="1.01" duration="74.10" waitingTime="49.80" timeLoss="52.09" traveltime="74.10">
        <walk depart="120.00" departPos="15.09" arrival="194.10" arrivalPos="3.44" duration="74.10" routeLength="30.72" timeLoss="52.09" maxSpeed="1.40" waitingTime="49.80"/>
    </personinfo>
    <personinfo id="pf_2.10" depart="150.00" type="ped" speedFactor="0.99" duration="44.20" waitingTime="19.60" timeLoss="21.96" traveltime="44.20">
        <walk depart="150.00" departPos="15.09" arrival="194.20" arrivalPos="3.44" duration="44.20" routeLength="30.72" timeLoss="21.96" maxSpeed="1.38" waitingTime="19.60"/>
    </personinfo>
    <personinfo id="pf_2.11" depart="165.00" type="ped" speedFactor="1.02" duration="30.10" waitingTime="5.90" timeLoss="8.41" traveltime="30.10">
        <walk depart="165.00" departPos="15.09" arrival="195.10" arrivalPos="3.44" duration="30.10" routeLength="30.72" timeLoss="8.41" maxSpeed="1.42" waitingTime="5.90"/>
    </personinfo>
    <tripinfo id="D1_1.3" depart="92.30" departLane="140483224#1_1" departPos="5.10" departPosLat="0.00" departSpeed="27.97" departDelay="0.00" arrival="196.50" arrivalLane="-793339796#2_2" arrivalPos="82.50" arrivalPosLat="0.00" arrivalSpeed="27.87" duration="104.20" routeLength="1648.38" waitingTime="11.20" waitingCount="2" stopTime="0.00" timeLoss="42.84" rerouteNo="1" devices="tripinfo_D1_1.3 routing_D1_1.3" vType="car" speedFactor="1.01" vaporized=""/>
    <tripinfo id="A2_1.4" depart="46.90" departLane="-793339796#2_1" departPos="5.10" departPosLat="0.00" departSpeed="28.29" departDelay="5.50" arrival="197.10" arrivalLane="-440471861#0_1" arrivalPos="31.52" arrivalPosLat="0.00" arrivalSpeed="28.19" duration="150.20" routeLength="1081.27" waitingTime="101.90" waitingCount="1" stopTime="0.00" timeLoss="111.97" rerouteNo="1" devices="tripinfo_A2_1.4 routing_A2_1.4" vType="car" speedFactor="1.02" vaporized=""/>
    <personinfo id="pf_4.5" depart="75.00" type="ped" speedFactor="1.12" duration="122.80" waitingTime="16.60" timeLoss="27.81" traveltime="122.80">
        <walk depart="75.00" departPos="25.00" arrival="133.30" arrivalPos="29.11" duration="58.30" routeLength="72.15" timeLoss="12.10" maxSpeed="1.56" waitingTime="6.80"/>
        <walk depart="133.30" departPos="29.11" arrival="197.80" arrivalPos="29.05" duration="64.50" routeLength="76.20" timeLoss="15.71" maxSpeed="1.56" waitingTime="9.80"/>
    </personinfo>
    <tripinfo id="D2_1.1" depart="39.10" departLane="140483224#1_1" departPos="8.10" departPosLat="0.00" departSpeed="27.78" departDelay="0.00" arrival="198.30" arrivalLane="-145894807#0_1" arrivalPos="260.95" arrivalPosLat="0.00" arrivalSpeed="8.32" duration="159.20" routeLength="1089.76" waitingTime="64.10" waitingCount="1" stopTime="0.00" timeLoss="74.01" rerouteNo="1" devices="tripinfo_D2_1.1 routing_D2_1.1" vType="jeep" speedFactor="1.00" vaporized=""/>
    <tripinfo id="A2_1.6" depart="48.10" departLane="-793339796#2_1" departPos="5.10" departPosLat="0.00" departSpeed="27.03" departDelay="0.00" arrival="199.00" arrivalLane="-440471861#0_1" arrivalPos="31.52" arrivalPosLat="-0.00" arrivalSpeed="26.98" duration="150.90" routeLength="1081.27" waitingTime="96.30" waitingCount="1" stopTime="0.00" timeLoss="110.80" rerouteNo="1" devices="tripinfo_A2_1.6 routing_A2_1.6" vType="car" speedFactor="0.97" vaporized=""/>
    <tripinfo id="A2_1.5" depart="46.90" departLane="-793339796#2_2" departPos="5.10" departPosLat="0.00" departSpeed="24.66" departDelay="0.30" arrival="199.40" arrivalLane="-440471861#0_2" arrivalPos="31.52" arrivalPosLat="0.00" arrivalSpeed="24.62" duration="152.50" routeLength="1081.27" waitingTime="99.50" waitingCount="1" stopTime="0.00" timeLoss="108.57" rerouteNo="1" devices="tripinfo_A2_1.5 routing_A2_1.5" vType="car" speedFactor="0.89" vaporized=""/>
    <tripinfo id="D1_1.4" depart="112.20" departLane="140483224#1_1" departPos="5.10" departPosLat="0.00" departSpeed="27.94" departDelay="0.00" arrival="199.80" arrivalLane="-793339796#2_2" arrivalPos="82.50" arrivalPosLat="0.00" arrivalSpeed="27.91" duration="87.60" routeLength="1648.38" waitingTime="0.00" waitingCount="0" stopTime="0.00" timeLoss="26.20" rerouteNo="1" devices="tripinfo_D1_1.4 routing_D1_1.4" vType="car" speedFactor="1.01" vaporized=""/>
    <tripinfo id="D2_1.3" depart="93.70" departLane="140483224#1_2" departPos="2.30" departPosLat="0.00" departSpeed="28.96" departDelay="0.00" arrival="200.50" arrivalLane="-145894807#0_1" arrivalPos="260.95" arrivalPosLat="-0.00" arrivalSpeed="8.61" duration="106.80" routeLength="1095.56" waitingTime="8.00" waitingCount="2" stopTime="0.00" timeLoss="24.88" rerouteNo="1" devices="tripinfo_D2_1.3 routing_D2_1.3" vType="tricycle" speedFactor="1.04" vaporized=""/>
    <tripinfo id="A2_1.8" depart="62.70" departLane="-793339796#2_1" departPos="5.10" departPosLat="0.00" departSpeed="27.81" departDelay="8.60" arrival="200.70" arrivalLane="-440471861#0_1" arrivalPos="31.52" arrivalPosLat="0.00" arrivalSpeed="27.75" duration="138.00" routeLength="1081.27" waitingTime="82.80" waitingCount="1" stopTime="0.00" timeLoss="99.05" rerouteNo="1" devices="tripinfo_A2_1.8 routing_A2_1.8" vType="car" speedFactor="1.00" vaporized=""/>
    <tripinfo id="D1_1.5" depart="117.10" departLane="140483224#1_1" departPos="5.10" departPosLat="0.00" departSpeed="27.34" departDelay="0.00" arrival="203.00" arrivalLane="-793339796#2_2" arrivalPos="82.50" arrivalPosLat="0.00" arrivalSpeed="27.25" duration="85.90" routeLength="1648.38" waitingTime="0.00" waitingCount="0" stopTime="0.00" timeLoss="23.08" rerouteNo="1" devices="tripinfo_D1_1.5 routing_D1_1.5" vType="car" speedFactor="0.98" vaporized=""/>
    <tripinfo id="A2_1.7" depart="48.40" departLane="-793339796#2_2" departPos="5.10" departPosLat="0.00" departSpeed="21.17" departDelay="0.00" arrival="203.20" arrivalLane="-440471861#0_2" arrivalPos="31.52" arrivalPosLat="-0.82" arrivalSpeed="21.04" duration="154.80" routeLength="1081.27" waitingTime="91.50" waitingCount="1" stopTime="0.00" timeLoss="103.71" rerouteNo="1" devices="tripinfo_A2_1.7 routing_A2_1.7" vType="car" speedFactor="0.76" vaporized=""/>
    <tripinfo id="D2_1.2" depart="67.30" departLane="140483224#1_1" departPos="5.10" departPosLat="0.00" departSpeed="27.46" departDelay="0.00" arrival="204.10" arrivalLane="-145894807#0_1" arrivalPos="260.95" arrivalPosLat="0.00" arrivalSpeed="8.17" duration="136.80" routeLength="1092.76" waitingTime="37.60" waitingCount="2" stopTime="0.00" timeLoss="50.42" rerouteNo="1" devices="tripinfo_D2_1.2 routing_D2_1.2" vType="car" speedFactor="0.99" vaporized=""/>
    <tripinfo id="A2_1.9" depart="137.30" departLane="-793339796#2_1" departPos="5.10" departPosLat="0.00" departSpeed="27.04" departDelay="11.50" arrival="204.50" arrivalLane="-440471861#0_1" arrivalPos="31.52" arrivalPosLat="0.00" arrivalSpeed="24.05" duration="67.20" routeLength="1081.27" waitingTime="8.40" waitingCount="1" stopTime="0.00" timeLoss="27.19" rerouteNo="1" devices="tripinfo_A2_1.9 routing_A2_1.9" vType="car" speedFactor="0.97" vaporized=""/>
    <tripinfo id="A2_1.10" depart="151.80" departLane="-793339796#2_1" departPos="5.10" departPosLat="0.00" departSpeed="29.16" departDelay="23.60" arrival="205.70" arrivalLane="-440471861#0_1" arrivalPos="31.52" arrivalPosLat="0.00" arrivalSpeed="25.82" duration="53.90" routeLength="1081.27" waitingTime="0.00" waitingCount="0" stopTime="0.00" timeLoss="16.80" rerouteNo="1" devices="tripinfo_A2_1.10 routing_A2_1.10" vType="car" speedFactor="1.05" vaporized=""/>