<?xml version="1.0" encoding="UTF-8"?>

<!-- generated on 2025-11-13 18:00:06 by Eclipse SUMO sumo Version 1.24.0
<sumoConfiguration xmlns:xsi="http://www.w3.org/2001/XMLSchema-instance" xsi:noNamespaceSchemaLocation="http://sumo.dlr.de/xsd/sumoConfiguration.xsd">

    <input>
        <net-file value="Olivarez_traci\network/baseline.net.xml"/>
        <route-files value="Olivarez_traci\demand/demand.rou.xml"/>
        <additional-files value="Olivarez_traci\additionals/map.poly.xml,Olivarez_traci\ additionals/detectors.add.xml"/>
    </input>

    <output>
        <tripinfo-output value="Olivarez_traci\output_A2C\baseline_A2C_trips.xml"/>
        <statistic-output value="Olivarez_traci\output_A2C\baseline_A2C_stats.xml"/>
    </output>

    <time>
        <begin value="0"/>
        <end value="10800"/>
        <step-length value="0.05"/>
    </time>

    <processing>
        <lateral-resolution value="0.1"/>
        <collision.action value="none"/>
        <collision.check-junctions value="false"/>
        <collision.mingap-factor value="0"/>
    </processing>

    <report>
        <no-warnings value="true"/>
    </report>

    <traci_server>
        <remote-port value="49673"/>
    </traci_server>

    <gui_only>
        <delay value="0"/>
    </gui_only>

</sumoConfiguration>
-->

<tripinfos xmlns:xsi="http://www.w3.org/2001/XMLSchema-instance" xsi:noNamespaceSchemaLocation="http://sumo.dlr.de/xsd/tripinfo_file.xsd">
    <tripinfo id="D3_1.0" depart="7.65" departLane="140483224#1_2" departPos="5.10" departPosLat="0.00" departSpeed="29.23" departDelay="0.00" arrival="50.35" arrivalLane="-440471861#0_2" arrivalPos="31.49" arrivalPosLat="0.00" arrivalSpeed="29.22" duration="42.70" routeLength="1069.11" waitingTime="0.00" waitingCount="0" stopTime="0.00" timeLoss="4.75" rerouteNo="1" devices="tripinfo_D3_1.0 routing_D3_1.0" vType="car" speedFactor="1.05" vaporized=""/>
    <tripinfo id="A2_1.0" depart="4.45" departLane="-793339796#2_1" departPos="5.10" departPosLat="0.00" departSpeed="26.72" departDelay="0.00" arrival="62.20" arrivalLane="-440471861#0_1" arrivalPos="31.49" arrivalPosLat="0.00" arrivalSpeed="26.68" duration="57.75" routeLength="1081.89" waitingTime="7.60" waitingCount="1" stopTime="0.00" timeLoss="17.23" rerouteNo="1" devices="tripinfo_A2_1.0 routing_A2_1.0" vType="car" speedFactor="0.96" vaporized=""/>
    <tripinfo id="D1_1.0" depart="0.60" departLane="140483224#1_1" departPos="8.10" departPosLat="0.00" departSpeed="31.73" departDelay="0.00" arrival="69.45" arrivalLane="-793339796#2_2" arrivalPos="83.13" arrivalPosLat="0.00" arrivalSpeed="31.67" duration="68.85" routeLength="1645.47" waitingTime="0.00" waitingCount="0" stopTime="0.00" timeLoss="14.96" rerouteNo="1" devices="tripinfo_D1_1.0 routing_D1_1.0" vType="jeep" speedFactor="1.14" vaporized=""/>
    <personinfo id="pf_1.0" depart="0.00" type="ped" speedFactor="1.06" duration="113.95" waitingTime="0.00" timeLoss="11.09" traveltime="113.95">
        <walk depart="0.00" departPos="25.00" arrival="113.95" arrivalPos="7.46" duration="113.95" routeLength="151.44" timeLoss="11.09" maxSpeed="1.47" waitingTime="0.00"/>
    </personinfo>
    <tripinfo id="B2_1.0" depart="31.00" departLane="361257727#0_1" departPos="5.10" departPosLat="0.00" departSpeed="9.74" departDelay="0.00" arrival="129.85" arrivalLane="-440471861#0_1" arrivalPos="31.49" arrivalPosLat="0.00" arrivalSpeed="32.44" duration="98.85" routeLength="1151.00" waitingTime="14.70" waitingCount="1" stopTime="0.00" timeLoss="24.73" rerouteNo="1" devices="tripinfo_B2_1.0 routing_B2_1.0" vType="car" speedFactor="1.17" vaporized=""/>
    <tripinfo id="B1_1.0" depart="37.80" departLane="361257727#0_1" departPos="5.10" departPosLat="0.00" departSpeed="8.02" departDelay="0.00" arrival="156.95" arrivalLane="-793339796#2_2" arrivalPos="83.13" arrivalPosLat="0.00" arrivalSpeed="26.71" duration="119.15" routeLength="1652.33" waitingTime="0.00" waitingCount="0" stopTime="0.00" timeLoss="12.84" rerouteNo="1" devices="tripinfo_B1_1.0 routing_B1_1.0" vType="car" speedFactor="0.96" vaporized=""/>
    <tripinfo id="C3_1.0" depart="43.55" departLane="440471861#0_1" departPos="2.30" departPosLat="0.00" departSpeed="28.16" departDelay="0.00" arrival="164.40" arrivalLane="-140483224#1_1" arrivalPos="64.17" arrivalPosLat="-0.00" arrivalSpeed="28.16" duration="120.85" routeLength="1056.75" waitingTime="66.95" waitingCount="1" stopTime="0.00" timeLoss="82.20" rerouteNo="1" devices="tripinfo_C3_1.0 routing_C3_1.0" vType="tricycle" speedFactor="1.01" vaporized=""/>
    <personinfo id="pf_1.1" depart="36.00" type="ped" speedFactor="0.94" duration="129.25" waitingTime="0.00" timeLoss="13.04" traveltime="129.25">
        <walk depart="36.00" departPos="25.00" arrival="165.25" arrivalPos="7.46" duration="129.25" routeLength="151.44" timeLoss="13.04" maxSpeed="1.30" waitingTime="0.00"/>
    </personinfo>
    <tripinfo id="C3_1.1" depart="78.25" departLane="440471861#0_1" departPos="8.10" departPosLat="0.00" departSpeed="29.57" departDelay="0.00" arrival="166.95" arrivalLane="-140483224#1_1" arrivalPos="64.17" arrivalPosLat="-0.00" arrivalSpeed="29.54" duration="88.70" routeLength="1050.95" waitingTime="32.75" waitingCount="1" stopTime="0.00" timeLoss="52.09" rerouteNo="1" devices="tripinfo_C3_1.1 routing_C3_1.1" vType="jeep" speedFactor="1.06" vaporized=""/>
    <tripinfo id="A1_1.0" depart="78.95" departLane="-793339796#2_1" departPos="7.20" departPosLat="0.00" departSpeed="29.06" departDelay="0.00" arrival="169.35" arrivalLane="-145894807#0_1" arrivalPos="260.97" arrivalPosLat="0.00" arrivalSpeed="8.69" duration="90.40" routeLength="1055.35" waitingTime="0.00" waitingCount="0" stopTime="0.00" timeLoss="4.88" rerouteNo="1" devices="tripinfo_A1_1.0 routing_A1_1.0" vType="truck" speedFactor="1.05" vaporized=""/>
    <tripinfo id="C1_1.0" depart="31.85" departLane="440471861#0_1" departPos="2.30" departPosLat="0.00" departSpeed="30.61" departDelay="0.00" arrival="180.30" arrivalLane="-793339796#2_2" arrivalPos="83.13" arrivalPosLat="0.00" arrivalSpeed="30.53" duration="148.45" routeLength="1656.83" waitingTime="84.10" waitingCount="1" stopTime="0.00" timeLoss="93.33" rerouteNo="1" devices="tripinfo_C1_1.0 routing_C1_1.0" vType="motorcycle" speedFactor="1.10" vaporized=""/>
    <personinfo id="pf_1.2" depart="72.00" type="ped" speedFactor="1.01" duration="119.75" waitingTime="0.00" timeLoss="11.84" traveltime="119.75">
        <walk depart="72.00" departPos="25.00" arrival="191.75" arrivalPos="7.46" duration="119.75" routeLength="151.44" timeLoss="11.84" maxSpeed="1.40" waitingTime="0.00"/>
    </personinfo>
    <tripinfo id="C1_1.1" depart="41.05" departLane="440471861#0_1" departPos="5.10" departPosLat="0.00" departSpeed="26.92" departDelay="0.00" arrival="199.65" arrivalLane="-793339796#2_2" arrivalPos="83.13" arrivalPosLat="0.00" arrivalSpeed="26.89" duration="158.60" routeLength="1654.03" waitingTime="76.45" waitingCount="2" stopTime="0.00" timeLoss="95.97" rerouteNo="1" devices="tripinfo_C1_1.1 routing_C1_1.1" vType="car" speedFactor="0.97" vaporized=""/>
    <tripinfo id="C2_1.0" depart="20.15" departLane="440471861#0_2" departPos="5.10" departPosLat="0.00" departSpeed="28.79" departDelay="0.00" arrival="205.25" arrivalLane="-145894807#0_1" arrivalPos="260.97" arrivalPosLat="0.00" arrivalSpeed="8.58" duration="185.10" routeLength="1099.91" waitingTime="93.80" waitingCount="1" stopTime="0.00" timeLoss="100.85" rerouteNo="1" devices="tripinfo_C2_1.0 routing_C2_1.0" vType="car" speedFactor="1.04" vaporized=""/>
    <tripinfo id="C3_1.2" depart="161.95" departLane="440471861#0_1" departPos="5.10" departPosLat="0.00" departSpeed="24.74" departDelay="0.00" arrival="211.10" arrivalLane="-140483224#1_1" arrivalPos="64.17" arrivalPosLat="-0.00" arrivalSpeed="24.72" duration="49.15" routeLength="1053.95" waitingTime="0.00" waitingCount="0" stopTime="0.00" timeLoss="5.27" rerouteNo="1" devices="tripinfo_C3_1.2 routing_C3_1.2" vType="car" speedFactor="0.89" vaporized=""/>
    <tripinfo id="D3_1.1" depart="100.85" departLane="140483224#1_2" departPos="8.10" departPosLat="0.00" departSpeed="30.83" departDelay="0.00" arrival="215.55" arrivalLane="-440471861#0_2" arrivalPos="31.49" arrivalPosLat="0.00" arrivalSpeed="30.78" duration="114.70" routeLength="1066.11" waitingTime="69.00" waitingCount="1" stopTime="0.00" timeLoss="78.81" rerouteNo="1" devices="tripinfo_D3_1.1 routing_D3_1.1" vType="jeep" speedFactor="1.11" vaporized=""/>
    <personinfo id="pf_1.3" depart="108.00" type="ped" speedFactor="1.08" duration="111.70" waitingTime="0.00" timeLoss="10.99" traveltime="111.70">
        <walk depart="108.00" departPos="25.00" arrival="219.70" arrivalPos="7.46" duration="111.70" routeLength="151.44" timeLoss="10.99" maxSpeed="1.50" waitingTime="0.00"/>
    </personinfo>
    <tripinfo id="A1_1.1" depart="125.65" departLane="-793339796#2_1" departPos="2.30" departPosLat="0.00" departSpeed="27.06" departDelay="0.00" arrival="219.75" arrivalLane="-145894807#0_1" arrivalPos="260.97" arrivalPosLat="0.00" arrivalSpeed="8.10" duration="94.10" routeLength="1060.25" waitingTime="0.00" waitingCount="0" stopTime="0.00" timeLoss="2.07" rerouteNo="1" devices="tripinfo_A1_1.1 routing_A1_1.1" vType="motorcycle" speedFactor="0.97" vaporized=""/>
    <tripinfo id="A3_1.1" depart="148.50" departLane="-793339796#2_1" departPos="2.30" departPosLat="0.00" departSpeed="32.00" departDelay="0.00" arrival="226.50" arrivalLane="-140483224#1_2" arrivalPos="64.17" arrivalPosLat="0.00" arrivalSpeed="31.97" duration="78.00" routeLength="1084.53" waitingTime="35.90" waitingCount="1" stopTime="0.00" timeLoss="42.81" rerouteNo="1" devices="tripinfo_A3_1.1 routing_A3_1.1" vType="motorcycle" speedFactor="1.15" vaporized=""/>
    <tripinfo id="A3_1.0" depart="107.30" departLane="-793339796#2_1" departPos="2.30" departPosLat="0.00" departSpeed="23.62" departDelay="0.00" arrival="232.30" arrivalLane="-140483224#1_2" arrivalPos="64.17" arrivalPosLat="0.00" arrivalSpeed="23.57" duration="125.00" routeLength="1084.53" waitingTime="74.10" waitingCount="1" stopTime="0.00" timeLoss="77.32" rerouteNo="1" devices="tripinfo_A3_1.0 routing_A3_1.0" vType="motorcycle" speedFactor="0.85" vaporized=""/>
    <tripinfo id="A1_1.2" depart="154.60" departLane="-793339796#2_1" departPos="2.30" departPosLat="0.00" departSpeed="31.66" departDelay="0.00" arrival="235.35" arrivalLane="-145894807#0_1" arrivalPos="260.97" arrivalPosLat="0.00" arrivalSpeed="9.39" duration="80.75" routeLength="1060.25" waitingTime="0.00" waitingCount="0" stopTime="0.00" timeLoss="2.11" rerouteNo="1" devices="tripinfo_A1_1.2 routing_A1_1.2" vType="motorcycle" speedFactor="1.14" vaporized=""/>
    <tripinfo id="C2_1.1" depart="161.10" departLane="440471861#0_2" departPos="5.10" departPosLat="0.00" departSpeed="28.93" departDelay="0.00" arrival="247.10" arrivalLane="-145894807#0_1" arrivalPos="260.97" arrivalPosLat="0.00" arrivalSpeed="8.61" duration="86.00" routeLength="1099.91" waitingTime="0.00" waitingCount="0" stopTime="0.00" timeLoss="2.12" rerouteNo="1" devices="tripinfo_C2_1.1 routing_C2_1.1" vType="car" speedFactor="1.04" vaporized=""/>
    <tripinfo id="D1_1.1" depart="46.15" departLane="140483224#1_1" departPos="2.30" departPosLat="0.00" departSpeed="29.74" departDelay="0.00" arrival="247.65" arrivalLane="-793339796#2_2" arrivalPos="83.13" arrivalPosLat="0.00" arrivalSpeed="29.69" duration="201.50" routeLength="1651.27" waitingTime="124.85" waitingCount="1" stopTime="0.00" timeLoss="143.77" rerouteNo="1" devices="tripinfo_D1_1.1 routing_D1_1.1" vType="tricycle" speedFactor="1.07" vaporized=""/>
    <tripinfo id="D1_1.2" depart="58.55" departLane="140483224#1_1" departPos="2.30" departPosLat="0.00" departSpeed="27.78" departDelay="0.00" arrival="251.45" arrivalLane="-793339796#2_2" arrivalPos="83.13" arrivalPosLat="0.00" arrivalSpeed="27.75" duration="192.90" routeLength="1651.27" waitingTime="111.75" waitingCount="1" stopTime="0.00" timeLoss="131.08" rerouteNo="1" devices="tripinfo_D1_1.2 routing_D1_1.2" vType="tricycle" speedFactor="1.00" vaporized=""/>
    <tripinfo id="D1_1.3" depart="118.00" departLane="140483224#1_1" departPos="2.30" departPosLat="0.00" departSpeed="28.91" departDelay="0.00" arrival="253.95" arrivalLane="-793339796#2_2" arrivalPos="83.13" arrivalPosLat="0.00" arrivalSpeed="28.90" duration="135.95" routeLength="1651.27" waitingTime="49.20" waitingCount="1" stopTime="0.00" timeLoss="76.56" rerouteNo="1" devices="tripinfo_D1_1.3 routing_D1_1.3" vType="tricycle" speedFactor="1.04" vaporized=""/>
    <tripinfo id="D1_1.4" depart="178.90" departLane="140483224#1_1" departPos="5.10" departPosLat="0.00" departSpeed="31.36" departDelay="0.00" arrival="256.25" arrivalLane="-793339796#2_2" arrivalPos="83.13" arrivalPosLat="0.00" arrivalSpeed="30.93" duration="77.35" routeLength="1648.47" waitingTime="0.00" waitingCount="0" stopTime="0.00" timeLoss="22.72" rerouteNo="1" devices="tripinfo_D1_1.4 routing_D1_1.4" vType="car" speedFactor="1.13" vaporized=""/>
    <personinfo id="pf_1.4" depart="144.00" type="ped" speedFactor="1.03" duration="117.65" waitingTime="0.00" timeLoss="11.82" traveltime="117.65">
        <walk depart="144.00" departPos="25.00" arrival="261.65" arrivalPos="7.46" duration="117.65" routeLength="151.44" timeLoss="11.82" maxSpeed="1.43" waitingTime="0.00"/>
    </personinfo>
    <tripinfo id="A3_1.2" depart="227.15" departLane="-793339796#2_2" departPos="5.10" departPosLat="0.00" departSpeed="28.96" departDelay="0.00" arrival="270.15" arrivalLane="-140483224#1_2" arrivalPos="64.17" arrivalPosLat="0.00" arrivalSpeed="28.95" duration="43.00" routeLength="1081.73" waitingTime="0.00" waitingCount="0" stopTime="0.00" timeLoss="4.19" rerouteNo="1" devices="tripinfo_A3_1.2 routing_A3_1.2" vType="car" speedFactor="1.04" vaporized=""/>
    <tripinfo id="B2_1.1" depart="64.60" departLane="361257727#0_1" departPos="5.10" departPosLat="0.00" departSpeed="7.58" departDelay="0.00" arrival="288.30" arrivalLane="-440471861#0_1" arrivalPos="31.49" arrivalPosLat="0.00" arrivalSpeed="25.23" duration="223.70" routeLength="1151.00" waitingTime="120.95" waitingCount="1" stopTime="0.00" timeLoss="128.49" rerouteNo="1" devices="tripinfo_B2_1.1 routing_B2_1.1" vType="car" speedFactor="0.91" vaporized=""/>
    <tripinfo id="B2_1.2" depart="75.15" departLane="361257727#0_1" departPos="5.10" departPosLat="0.00" departSpeed="7.68" departDelay="0.00" arrival="289.60" arrivalLane="-440471861#0_1" arrivalPos="31.49" arrivalPosLat="0.00" arrivalSpeed="25.59" duration="214.45" routeLength="1151.00" waitingTime="109.40" waitingCount="1" stopTime="0.00" timeLoss="120.50" rerouteNo="1" devices="tripinfo_B2_1.2 routing_B2_1.2" vType="car" speedFactor="0.92" vaporized=""/>
    <tripinfo id="B1_1.1" depart="171.30" departLane="361257727#0_1" departPos="7.20" departPosLat="0.00" departSpeed="8.86" departDelay="0.00" arrival="294.75" arrivalLane="-793339796#2_2" arrivalPos="83.13" arrivalPosLat="0.00" arrivalSpeed="25.40" duration="123.45" routeLength="1650.23" waitingTime="0.00" waitingCount="0" stopTime="0.00" timeLoss="27.42" rerouteNo="1" devices="tripinfo_B1_1.1 routing_B1_1.1" vType="truck" speedFactor="1.06" vaporized=""/>
    <tripinfo id="B2_1.3" depart="198.55" departLane="361257727#0_1" departPos="5.10" departPosLat="0.00" departSpeed="6.34" departDelay="0.00" arrival="315.70" arrivalLane="-440471861#0_1" arrivalPos="31.49" arrivalPosLat="0.00" arrivalSpeed="21.11" duration="117.15" routeLength="1151.00" waitingTime="0.00" waitingCount="0" stopTime="0.00" timeLoss="3.26" rerouteNo="1" devices="tripinfo_B2_1.3 routing_B2_1.3" vType="car" speedFactor="0.76" vaporized=""/>
    <tripinfo id="A1_1.3" depart="222.65" departLane="-793339796#2_1" departPos="7.20" departPosLat="0.00" departSpeed="27.11" departDelay="0.00" arrival="318.85" arrivalLane="-145894807#0_1" arrivalPos="260.97" arrivalPosLat="0.00" arrivalSpeed="8.12" duration="96.20" routeLength="1055.35" waitingTime="0.00" waitingCount="0" stopTime="0.00" timeLoss="4.54" rerouteNo="1" devices="tripinfo_A1_1.3 routing_A1_1.3" vType="truck" speedFactor="0.98" vaporized=""/>
    <personinfo id="pf_1.5" depart="180.00" type="ped" speedFactor="0.83" duration="145.50" waitingTime="0.00" timeLoss="14.29" traveltime="145.50">
        <walk depart="180.00" departPos="25.00" arrival="325.50" arrivalPos="7.46" duration="145.50" routeLength="151.44" timeLoss="14.29" maxSpeed="1.15" waitingTime="0.00"/>
    </personinfo>
    <personinfo id="pf_1.6" depart="216.00" type="ped" speedFactor="1.05" duration="115.85" waitingTime="0.00" timeLoss="11.59" traveltime="115.85">
        <walk depart="216.00" departPos="25.00" arrival="331.85" arrivalPos="7.46" duration="115.85" routeLength="151.44" timeLoss="11.59" maxSpeed="1.45" waitingTime="0.00"/>
    </personinfo>
    <tripinfo id="C3_1.3" depart="180.75" departLane="440471861#0_1" departPos="5.10" departPosLat="0.00" departSpeed="26.94" departDelay="0.00" arrival="332.30" arrivalLane="-140483224#1_1" arrivalPos="64.17" arrivalPosLat="-0.00" arrivalSpeed="26.94" duration="151.55" routeLength="1053.95" waitingTime="102.60" waitingCount="1" stopTime="0.00" timeLoss="111.27" rerouteNo="1" devices="tripinfo_C3_1.3 routing_C3_1.3" vType="car" speedFactor="0.97" vaporized=""/>
    <tripinfo id="C3_1.4" depart="308.85" departLane="440471861#0_1" departPos="5.10" departPosLat="0.00" departSpeed="26.59" departDelay="0.00" arrival="355.30" arrivalLane="-140483224#1_1" arrivalPos="64.17" arrivalPosLat="-0.00" arrivalSpeed="26.56" duration="46.45" routeLength="1053.95" waitingTime="0.00" waitingCount="0" stopTime="0.00" timeLoss="5.64" rerouteNo="1" devices="tripinfo_C3_1.4 routing_C3_1.4" vType="car" speedFactor="0.96" vaporized=""/>
    <tripinfo id="C1_1.2" depart="288.55" departLane="440471861#0_1" departPos="8.10" departPosLat="0.00" departSpeed="28.18" departDelay="0.00" arrival="360.30" arrivalLane="-793339796#2_2" arrivalPos="83.13" arrivalPosLat="0.00" arrivalSpeed="28.14" duration="71.75" routeLength="1651.03" waitingTime="0.00" waitingCount="0" stopTime="0.00" timeLoss="12.07" rerouteNo="1" devices="tripinfo_C1_1.2 routing_C1_1.2" vType="jeep" speedFactor="1.01" vaporized=""/>
    <tripinfo id="C2_1.2" depart="289.65" departLane="440471861#0_2" departPos="5.10" departPosLat="0.00" departSpeed="31.01" departDelay="0.00" arrival="370.80" arrivalLane="-145894807#0_1" arrivalPos="260.97" arrivalPosLat="0.00" arrivalSpeed="9.26" duration="81.15" routeLength="1099.91" waitingTime="0.00" waitingCount="0" stopTime="0.00" timeLoss="2.90" rerouteNo="1" devices="tripinfo_C2_1.2 routing_C2_1.2" vType="car" speedFactor="1.12" vaporized=""/>
    <personinfo id="pf_1.7" depart="252.00" type="ped" speedFactor="0.89" duration="136.60" waitingTime="0.00" timeLoss="13.53" traveltime="136.60">
        <walk depart="252.00" departPos="25.00" arrival="388.60" arrivalPos="7.46" duration="136.60" routeLength="151.44" timeLoss="13.53" maxSpeed="1.23" waitingTime="0.00"/>
    </personinfo>
    <tripinfo id="D3_1.2" depart="208.30" departLane="140483224#1_1" departPos="2.30" departPosLat="0.00" departSpeed="27.02" departDelay="0.00" arrival="389.55" arrivalLane="-440471861#0_2" arrivalPos="31.49" arrivalPosLat="0.00" arrivalSpeed="27.00" duration="181.25" routeLength="1071.91" waitingTime="136.45" waitingCount="1" stopTime="0.00" timeLoss="140.10" rerouteNo="1" devices="tripinfo_D3_1.2 routing_D3_1.2" vType="motorcycle" speedFactor="0.97" vaporized=""/>
    <tripinfo id="C1_1.3" depart="324.05" departLane="440471861#0_1" departPos="5.10" departPosLat="0.00" departSpeed="26.79" departDelay="0.00" arrival="394.40" arrivalLane="-793339796#2_2" arrivalPos="83.13" arrivalPosLat="0.00" arrivalSpeed="26.76" duration="70.35" routeLength="1654.03" waitingTime="0.00" waitingCount="0" stopTime="0.00" timeLoss="7.44" rerouteNo="1" devices="tripinfo_C1_1.3 routing_C1_1.3" vType="car" speedFactor="0.96" vaporized=""/>
    <tripinfo id="A1_1.4" depart="277.50" departLane="-793339796#2_1" departPos="5.10" departPosLat="0.00" departSpeed="19.69" departDelay="0.00" arrival="406.60" arrivalLane="-145894807#0_1" arrivalPos="260.97" arrivalPosLat="0.00" arrivalSpeed="5.89" duration="129.10" routeLength="1057.45" waitingTime="0.00" waitingCount="0" stopTime="0.00" timeLoss="2.82" rerouteNo="1" devices="tripinfo_A1_1.4 routing_A1_1.4" vType="car" speedFactor="0.71" vaporized=""/>
    <tripinfo id="D3_1.3" depart="358.75" departLane="140483224#1_1" departPos="2.30" departPosLat="0.00" departSpeed="24.08" departDelay="0.00" arrival="406.85" arrivalLane="-440471861#0_2" arrivalPos="31.49" arrivalPosLat="0.00" arrivalSpeed="24.07" duration="48.10" routeLength="1071.91" waitingTime="0.00" waitingCount="0" stopTime="0.00" timeLoss="1.89" rerouteNo="1" devices="tripinfo_D3_1.3 routing_D3_1.3" vType="motorcycle" speedFactor="0.87" vaporized=""/>
    <tripinfo id="A2_1.2" depart="337.55" departLane="-793339796#2_1" departPos="2.30" departPosLat="0.00" departSpeed="35.06" departDelay="0.00" arrival="410.00" arrivalLane="-440471861#0_1" arrivalPos="31.49" arrivalPosLat="0.00" arrivalSpeed="34.95" duration="72.45" routeLength="1084.69" waitingTime="35.00" waitingCount="1" stopTime="0.00" timeLoss="41.52" rerouteNo="1" devices="tripinfo_A2_1.2 routing_A2_1.2" vType="motorcycle" speedFactor="1.26" vaporized=""/>
    <tripinfo id="A2_1.1" depart="261.45" departLane="-793339796#2_1" departPos="8.10" departPosLat="0.00" departSpeed="29.72" departDelay="0.00" arrival="416.70" arrivalLane="-440471861#0_2" arrivalPos="31.49" arrivalPosLat="0.00" arrivalSpeed="29.72" duration="155.25" routeLength="1078.89" waitingTime="108.20" waitingCount="1" stopTime="0.00" timeLoss="118.93" rerouteNo="1" devices="tripinfo_A2_1.1 routing_A2_1.1" vType="jeep" speedFactor="1.07" vaporized=""/>
    <tripinfo id="A1_1.5" depart="322.60" departLane="-793339796#2_1" departPos="12.10" departPosLat="0.00" departSpeed="27.78" departDelay="0.00" arrival="416.70" arrivalLane="-145894807#0_1" arrivalPos="260.97" arrivalPosLat="0.00" arrivalSpeed="8.30" duration="94.10" routeLength="1050.45" waitingTime="0.00" waitingCount="0" stopTime="0.00" timeLoss="4.82" rerouteNo="1" devices="tripinfo_A1_1.5 routing_A1_1.5" vType="bus" speedFactor="1.00" vaporized=""/>
    <personinfo id="pf_1.8" depart="288.00" type="ped" speedFactor="0.94" duration="128.85" waitingTime="0.00" timeLoss="12.59" traveltime="128.85">
        <walk depart="288.00" departPos="25.00" arrival="416.85" arrivalPos="7.46" duration="128.85" routeLength="151.44" timeLoss="12.59" maxSpeed="1.30" waitingTime="0.00"/>
    </personinfo>
    <tripinfo id="B2_1.4" depart="306.80" departLane="361257727#0_1" departPos="8.10" departPosLat="0.00" departSpeed="8.30" departDelay="0.00" arrival="418.05" arrivalLane="-440471861#0_1" arrivalPos="31.49" arrivalPosLat="-0.00" arrivalSpeed="27.67" duration="111.25" routeLength="1212.82" waitingTime="6.75" waitingCount="1" stopTime="0.00" timeLoss="25.04" rerouteNo="1" devices="tripinfo_B2_1.4 routing_B2_1.4" vType="jeep" speedFactor="1.00" vaporized=""/>
    <tripinfo id="D1_1.5" depart="226.35" departLane="140483224#1_1" departPos="5.10" departPosLat="0.00" departSpeed="30.89" departDelay="0.00" arrival="419.50" arrivalLane="-793339796#2_2" arrivalPos="83.13" arrivalPosLat="0.00" arrivalSpeed="30.87" duration="193.15" routeLength="1648.47" waitingTime="118.25" waitingCount="1" stopTime="0.00" timeLoss="137.58" rerouteNo="1" devices="tripinfo_D1_1.5 routing_D1_1.5" vType="car" speedFactor="1.11" vaporized=""/>
    <tripinfo id="D1_1.6" depart="284.85" departLane="140483224#1_1" departPos="5.10" departPosLat="0.00" departSpeed="29.54" departDelay="0.00" arrival="423.60" arrivalLane="-793339796#2_2" arrivalPos="83.13" arrivalPosLat="0.00" arrivalSpeed="29.51" duration="138.75" routeLength="1648.47" waitingTime="59.95" waitingCount="1" stopTime="0.00" timeLoss="80.70" rerouteNo="1" devices="tripinfo_D1_1.6 routing_D1_1.6" vType="car" speedFactor="1.06" vaporized=""/>
    <tripinfo id="A1_1.6" depart="329.65" departLane="-793339796#2_1" departPos="8.10" departPosLat="0.00" departSpeed="26.12" departDelay="0.00" arrival="431.95" arrivalLane="-145894807#0_1" arrivalPos="260.97" arrivalPosLat="0.00" arrivalSpeed="7.82" duration="102.30" routeLength="1054.45" waitingTime="1.60" waitingCount="1" stopTime="0.00" timeLoss="7.23" rerouteNo="1" devices="tripinfo_A1_1.6 routing_A1_1.6" vType="jeep" speedFactor="0.94" vaporized=""/>
    <tripinfo id="A1_1.7" depart="342.40" departLane="-793339796#2_1" departPos="2.30" departPosLat="0.00" departSpeed="25.75" departDelay="0.00" arrival="441.20" arrivalLane="-145894807#0_1" arrivalPos="260.97" arrivalPosLat="0.00" arrivalSpeed="7.71" duration="98.80" routeLength="1060.25" waitingTime="0.00" waitingCount="0" stopTime="0.00" timeLoss="2.16" rerouteNo="1" devices="tripinfo_A1_1.7 routing_A1_1.7" vType="tricycle" speedFactor="0.93" vaporized=""/>
    <tripinfo id="D2_1.0" depart="290.30" departLane="140483224#1_1" departPos="8.10" departPosLat="0.00" departSpeed="31.44" departDelay="0.00" arrival="443.00" arrivalLane="-145894807#0_1" arrivalPos="260.97" arrivalPosLat="0.00" arrivalSpeed="9.36" duration="152.70" routeLength="1106.87" waitingTime="51.75" waitingCount="1" stopTime="0.00" timeLoss="75.61" rerouteNo="1" devices="tripinfo_D2_1.0 routing_D2_1.0" vType="jeep" speedFactor="1.13" vaporized=""/>
    <tripinfo id="B3_1.0" depart="241.30" departLane="361257727#0_1" departPos="12.10" departPosLat="0.00" departSpeed="8.33" departDelay="0.00" arrival="451.05" arrivalLane="-140483224#1_1" arrivalPos="64.17" arrivalPosLat="0.00" arrivalSpeed="27.75" duration="209.75" routeLength="1156.82" waitingTime="106.00" waitingCount="1" stopTime="0.00" timeLoss="123.74" rerouteNo="1" devices="tripinfo_B3_1.0 routing_B3_1.0" vType="bus" speedFactor="1.00" vaporized=""/>
    <personinfo id="pf_1.9" depart="324.00" type="ped" speedFactor="0.86" duration="141.30" waitingTime="0.00" timeLoss="14.06" traveltime="141.30">
        <walk depart="324.00" departPos="25.00" arrival="465.30" arrivalPos="7.46" duration="141.30" routeLength="151.44" timeLoss="14.06" maxSpeed="1.19" waitingTime="0.00"/>
    </personinfo>
    <personinfo id="pf_1.10" depart="360.00" type="ped" speedFactor="1.09" duration="111.20" waitingTime="0.00" timeLoss="11.23" traveltime="111.20">
        <walk depart="360.00" departPos="25.00" arrival="471.20" arrivalPos="7.46" duration="111.20" routeLength="151.44" timeLoss="11.23" maxSpeed="1.51" waitingTime="0.00"/>
    </personinfo>
    <tripinfo id="A1_1.8" depart="383.20" departLane="-793339796#2_1" departPos="7.20" departPosLat="0.00" departSpeed="27.02" departDelay="0.00" arrival="479.75" arrivalLane="-145894807#0_1" arrivalPos="260.97" arrivalPosLat="0.00" arrivalSpeed="8.10" duration="96.55" routeLength="1055.35" waitingTime="0.00" waitingCount="0" stopTime="0.00" timeLoss="4.59" rerouteNo="1" devices="tripinfo_A1_1.8 routing_A1_1.8" vType="truck" speedFactor="0.97" vaporized=""/>
    <tripinfo id="A1_1.9" depart="411.25" departLane="-793339796#2_1" departPos="2.30" departPosLat="0.00" departSpeed="28.30" departDelay="0.00" arrival="501.25" arrivalLane="-145894807#0_1" arrivalPos="260.97" arrivalPosLat="0.00" arrivalSpeed="8.39" duration="90.00" routeLength="1060.25" waitingTime="0.00" waitingCount="0" stopTime="0.00" timeLoss="2.03" rerouteNo="1" devices="tripinfo_A1_1.9 routing_A1_1.9" vType="motorcycle" speedFactor="1.02" vaporized=""/>
    <tripinfo id="B1_1.2" depart="381.65" departLane="361257727#0_1" departPos="5.10" departPosLat="0.00" departSpeed="7.26" departDelay="0.00" arrival="510.35" arrivalLane="-793339796#2_2" arrivalPos="83.13" arrivalPosLat="0.00" arrivalSpeed="24.18" duration="128.70" routeLength="1652.33" waitingTime="0.00" waitingCount="0" stopTime="0.00" timeLoss="11.17" rerouteNo="1" devices="tripinfo_B1_1.2 routing_B1_1.2" vType="car" speedFactor="0.87" vaporized=""/>
    <personinfo id="pf_1.11" depart="396.00" type="ped" speedFactor="1.03" duration="118.00" waitingTime="0.00" timeLoss="11.76" traveltime="118.00">
        <walk depart="396.00" departPos="25.00" arrival="514.00" arrivalPos="7.46" duration="118.00" routeLength="151.44" timeLoss="11.76" maxSpeed="1.43" waitingTime="0.00"/>
    </personinfo>
    <tripinfo id="D3_1.4" depart="380.35" departLane="140483224#1_2" departPos="8.10" departPosLat="0.00" departSpeed="24.53" departDelay="0.00" arrival="519.65" arrivalLane="-440471861#0_2" arrivalPos="31.49" arrivalPosLat="0.00" arrivalSpeed="24.47" duration="139.30" routeLength="1066.11" waitingTime="86.65" waitingCount="1" stopTime="0.00" timeLoss="94.18" rerouteNo="1" devices="tripinfo_D3_1.4 routing_D3_1.4" vType="jeep" speedFactor="0.88" vaporized=""/>
    <tripinfo id="C1_1.4" depart="435.90" departLane="440471861#0_1" departPos="8.10" departPosLat="0.00" departSpeed="30.66" departDelay="0.00" arrival="520.30" arrivalLane="-793339796#2_2" arrivalPos="83.13" arrivalPosLat="0.00" arrivalSpeed="30.61" duration="84.40" routeLength="1651.03" waitingTime="8.70" waitingCount="1" stopTime="0.00" timeLoss="29.55" rerouteNo="1" devices="tripinfo_C1_1.4 routing_C1_1.4" vType="jeep" speedFactor="1.10" vaporized=""/>
    <tripinfo id="B2_1.5" depart="411.55" departLane="361257727#0_1" departPos="5.10" departPosLat="0.00" departSpeed="9.66" departDelay="0.00" arrival="526.40" arrivalLane="-440471861#0_1" arrivalPos="31.49" arrivalPosLat="0.00" arrivalSpeed="32.19" duration="114.85" routeLength="1215.82" waitingTime="23.75" waitingCount="1" stopTime="0.00" timeLoss="40.45" rerouteNo="1" devices="tripinfo_B2_1.5 routing_B2_1.5" vType="car" speedFactor="1.16" vaporized=""/>