<?xml version="1.0" encoding="UTF-8"?>

<!-- generated on 2026-01-31 20:15:37 by Eclipse SUMO sumo Version 1.24.0
<sumoConfiguration xmlns:xsi="http://www.w3.org/2001/XMLSchema-instance" xsi:noNamespaceSchemaLocation="http://sumo.dlr.de/xsd/sumoConfiguration.xsd">

    <input>
        <net-file value="Olivarez_traci\network/map1.net.xml"/>
        <route-files value="Olivarez_traci\demand/flows_training.rou.xml"/>
        <additional-files value="Olivarez_traci\additionals/map.poly.xml,Olivarez_traci\ additionals/detectors.add.xml"/>
    </input>

    <output>
        <tripinfo-output value="Olivarez_traci\output_A2C\SD_A2C_trips.xml"/>
        <statistic-output value="Olivarez_traci\output_A2C\SD_A2C_stats.xml"/>
    </output>

    <time>
        <begin value="0"/>
        <end value="10800"/>
        <step-length value="0.1"/>
    </time>

    <processing>
        <lateral-resolution value="0.1"/>
        <collision.action value="none"/>
        <collision.check-junctions value="false"/>
        <collision.mingap-factor value="0"/>
    </processing>

    <report>
        <no-warnings value="true"/>
    </report>

    <traci_server>
        <remote-port value="52967"/>
    </traci_server>

    <gui_only>
        <delay value="0"/>
    </gui_only>

</sumoConfiguration>
-->

<tripinfos xmlns:xsi="http://www.w3.org/2001/XMLSchema-instance" xsi:noNamespaceSchemaLocation="http://sumo.dlr.de/xsd/tripinfo_file.xsd">
    <personinfo id="pf_2_normal.0" depart="0.00" type="ped" speedFactor="1.16" duration="21.40" waitingTime="0.00" timeLoss="2.28" traveltime="21.40">
        <walk depart="0.00" departPos="15.09" arrival="21.40" arrivalPos="3.44" duration="21.40" routeLength="30.72" timeLoss="2.28" maxSpeed="1.61" waitingTime="0.00"/>
    </personinfo>
</tripinfos>
