<?xml version="1.0" encoding="UTF-8"?>

<!-- generated on 2026-01-31 20:37:45 by Eclipse SUMO sumo Version 1.24.0
<sumoConfiguration xmlns:xsi="http://www.w3.org/2001/XMLSchema-instance" xsi:noNamespaceSchemaLocation="http://sumo.dlr.de/xsd/sumoConfiguration.xsd">

    <input>
        <net-file value="Olivarez_traci\network/map1.net.xml"/>
        <route-files value="Olivarez_traci\demand/flows_training.rou.xml"/>
        <additional-files value="Olivarez_traci\additionals/map.poly.xml,Olivarez_traci\ additionals/detectors.add.xml"/>
    </input>

    <output>
        <tripinfo-output value="Olivarez_traci\output_A2C\SD_A2C_trips.xml"/>
        <statistic-output value="Olivarez_traci\output_A2C\SD_A2C_stats.xml"/>
    </output>

    <time>
        <begin value="0"/>
        <end value="10800"/>
        <step-length value="0.1"/>
    </time>

    <processing>
        <lateral-resolution value="0.1"/>
        <collision.action value="none"/>
        <collision.check-junctions value="false"/>
        <collision.mingap-factor value="0"/>
    </processing>

    <report>
        <no-warnings value="true"/>
    </report>

    <traci_server>
        <remote-port value="61783"/>
    </traci_server>

    <gui_only>
        <delay value="0"/>
    </gui_only>

</sumoConfiguration>
-->

<tripinfos xmlns:xsi="http://www.w3.org/2001/XMLSchema-instance" xsi:noNamespaceSchemaLocation="http://sumo.dlr.de/xsd/tripinfo_file.xsd">
    <personinfo id="pf_2_normal.0" depart="0.00" type="ped" speedFactor="1.16" duration="21.40" waitingTime="0.00" timeLoss="2.28" traveltime="21.40">
        <walk depart="0.00" departPos="15.09" arrival="21.40" arrivalPos="3.44" duration="21.40" routeLength="30.72" timeLoss="2.28" maxSpeed="1.61" waitingTime="0.00"/>
    </personinfo>
    <tripinfo id="D3_1_normal.0" depart="15.30" departLane="140483224#1_2" departPos="5.10" departPosLat="0.00" departSpeed="31.42" departDelay="0.00" arrival="58.40" arrivalLane="-440471861#0_2" arrivalPos="31.52" arrivalPosLat="0.00" arrivalSpeed="31.41" duration="43.10" routeLength="1067.97" waitingTime="0.00" waitingCount="0" stopTime="0.00" timeLoss="7.71" rerouteNo="1" devices="tripinfo_D3_1_normal.0 routing_D3_1_normal.0" vType="car" speedFactor="1.13" vaporized=""/>
    <tripinfo id="D1_1_normal.0" depart="1.20" departLane="140483224#1_1" departPos="5.10" departPosLat="0.00" departSpeed="32.84" departDelay="0.00" arrival="86.30" arrivalLane="-793339796#2_2" arrivalPos="82.50" arrivalPosLat="0.00" arrivalSpeed="32.76" duration="85.10" routeLength="1648.38" waitingTime="10.30" waitingCount="1" stopTime="0.00" timeLoss="32.89" rerouteNo="1" devices="tripinfo_D1_1_normal.0 routing_D1_1_normal.0" vType="car" speedFactor="1.18" vaporized=""/>
    <tripinfo id="A2_1_normal.0" depart="8.90" departLane="-793339796#2_1" departPos="2.30" departPosLat="0.00" departSpeed="26.55" departDelay="0.00" arrival="94.30" arrivalLane="-440471861#0_1" arrivalPos="31.52" arrivalPosLat="0.00" arrivalSpeed="26.48" duration="85.40" routeLength="1084.07" waitingTime="28.50" waitingCount="2" stopTime="0.00" timeLoss="44.56" rerouteNo="1" devices="tripinfo_A2_1_normal.0 routing_A2_1_normal.0" vType="tricycle" speedFactor="0.96" vaporized=""/>
    <tripinfo id="A2_1_normal.1" depart="16.40" departLane="-793339796#2_1" departPos="7.20" departPosLat="0.00" departSpeed="29.85" departDelay="0.00" arrival="98.70" arrivalLane="-440471861#0_2" arrivalPos="31.52" arrivalPosLat="0.00" arrivalSpeed="29.84" duration="82.30" routeLength="1079.17" waitingTime="24.10" waitingCount="1" stopTime="0.00" timeLoss="46.07" rerouteNo="1" devices="tripinfo_A2_1_normal.1 routing_A2_1_normal.1" vType="truck" speedFactor="1.07" vaporized=""/>
    <personinfo id="pf_4_normal.0" depart="0.00" type="ped" speedFactor="1.09" duration="108.50" waitingTime="0.00" timeLoss="10.92" traveltime="108.50">
        <walk depart="0.00" departPos="25.00" arrival="52.90" arrivalPos="29.11" duration="52.90" routeLength="72.15" timeLoss="5.44" maxSpeed="1.52" waitingTime="0.00"/>
        <walk depart="52.90" departPos="29.11" arrival="108.50" arrivalPos="29.05" duration="55.60" routeLength="76.20" timeLoss="5.48" maxSpeed="1.52" waitingTime="0.00"/>
    </personinfo>
    <tripinfo id="D1_1_normal.1" depart="74.50" departLane="140483224#1_1" departPos="2.30" departPosLat="0.00" departSpeed="26.40" departDelay="0.00" arrival="152.40" arrivalLane="-793339796#2_2" arrivalPos="82.50" arrivalPosLat="0.00" arrivalSpeed="26.40" duration="77.90" routeLength="1651.18" waitingTime="0.00" waitingCount="0" stopTime="0.00" timeLoss="12.87" rerouteNo="1" devices="tripinfo_D1_1_normal.1 routing_D1_1_normal.1" vType="tricycle" speedFactor="0.95" vaporized=""/>
    <personinfo id="pf_4_normal.1" depart="45.00" type="ped" speedFactor="1.07" duration="110.70" waitingTime="0.00" timeLoss="10.71" traveltime="110.70">
        <walk depart="45.00" departPos="25.00" arrival="98.80" arrivalPos="29.11" duration="53.80" routeLength="72.15" timeLoss="5.17" maxSpeed="1.48" waitingTime="0.00"/>
        <walk depart="98.80" departPos="29.11" arrival="155.70" arrivalPos="29.05" duration="56.90" routeLength="76.20" timeLoss="5.54" maxSpeed="1.48" waitingTime="0.00"/>
    </personinfo>
    <tripinfo id="C1_1_normal.0" depart="35.30" departLane="440471861#0_1" departPos="5.10" departPosLat="0.00" departSpeed="25.85" departDelay="0.00" arrival="163.70" arrivalLane="-793339796#2_2" arrivalPos="82.50" arrivalPosLat="0.00" arrivalSpeed="25.77" duration="128.40" routeLength="1653.99" waitingTime="34.40" waitingCount="2" stopTime="0.00" timeLoss="63.21" rerouteNo="1" devices="tripinfo_C1_1_normal.0 routing_C1_1_normal.0" vType="car" speedFactor="0.93" vaporized=""/>
    <tripinfo id="C1_1_normal.1" depart="63.70" departLane="440471861#0_1" departPos="2.30" departPosLat="0.00" departSpeed="25.14" departDelay="0.00" arrival="169.80" arrivalLane="-793339796#2_2" arrivalPos="82.50" arrivalPosLat="0.00" arrivalSpeed="25.05" duration="106.10" routeLength="1656.79" waitingTime="17.00" waitingCount="1" stopTime="0.00" timeLoss="38.93" rerouteNo="1" devices="tripinfo_C1_1_normal.1 routing_C1_1_normal.1" vType="tricycle" speedFactor="0.91" vaporized=""/>
    <tripinfo id="C2_1_normal.0" depart="40.30" departLane="440471861#0_2" departPos="8.10" departPosLat="0.00" departSpeed="27.78" departDelay="0.00" arrival="173.80" arrivalLane="-145894807#0_1" arrivalPos="260.95" arrivalPosLat="0.00" arrivalSpeed="8.30" duration="133.50" routeLength="1079.06" waitingTime="37.90" waitingCount="1" stopTime="0.00" timeLoss="48.37" rerouteNo="1" devices="tripinfo_C2_1_normal.0 routing_C2_1_normal.0" vType="jeep" speedFactor="1.00" vaporized=""/>
    <tripinfo id="C1_1_normal.2" depart="82.10" departLane="440471861#0_1" departPos="7.20" departPosLat="0.00" departSpeed="28.64" departDelay="0.00" arrival="177.70" arrivalLane="-793339796#2_1" arrivalPos="82.50" arrivalPosLat="-0.00" arrivalSpeed="25.43" duration="95.60" routeLength="1651.89" waitingTime="0.00" waitingCount="0" stopTime="0.00" timeLoss="36.81" rerouteNo="1" devices="tripinfo_C1_1_normal.2 routing_C1_1_normal.2" vType="truck" speedFactor="1.03" vaporized=""/>
    <personinfo id="pf_2_normal.1" depart="45.00" type="ped" speedFactor="0.87" duration="138.90" waitingTime="110.90" timeLoss="113.59" traveltime="138.90">
        <walk depart="45.00" departPos="15.09" arrival="183.90" arrivalPos="3.44" duration="138.90" routeLength="30.72" timeLoss="113.59" maxSpeed="1.21" waitingTime="110.90"/>
    </personinfo>
    <personinfo id="pf_2_normal.2" depart="90.00" type="ped" speedFactor="0.87" duration="94.20" waitingTime="65.80" timeLoss="68.68" traveltime="94.20">
        <walk depart="90.00" departPos="15.09" arrival="184.20" arrivalPos="3.44" duration="94.20" routeLength="30.72" timeLoss="68.68" maxSpeed="1.20" waitingTime="65.80"/>
    </personinfo>
    <personinfo id="pf_2_normal.3" depart="135.00" type="ped" speedFactor="0.82" duration="50.20" waitingTime="20.30" timeLoss="23.37" traveltime="50.20">
        <walk depart="135.00" departPos="15.09" arrival="185.20" arrivalPos="3.44" duration="50.20" routeLength="30.72" timeLoss="23.37" maxSpeed="1.15" waitingTime="20.30"/>
    </personinfo>
    <tripinfo id="C3_1_normal.0" depart="22.80" departLane="440471861#0_1" departPos="12.10" departPosLat="0.00" departSpeed="27.78" departDelay="0.00" arrival="197.20" arrivalLane="-140483224#1_2" arrivalPos="64.04" arrivalPosLat="0.00" arrivalSpeed="27.77" duration="174.40" routeLength="1045.78" waitingTime="110.70" waitingCount="1" stopTime="0.00" timeLoss="135.40" rerouteNo="1" devices="tripinfo_C3_1_normal.0 routing_C3_1_normal.0" vType="bus" speedFactor="1.00" vaporized=""/>
    <personinfo id="pf_2_normal.4" depart="180.00" type="ped" speedFactor="0.94" duration="26.10" waitingTime="0.00" timeLoss="2.50" traveltime="26.10">
        <walk depart="180.00" departPos="15.09" arrival="206.10" arrivalPos="3.44" duration="26.10" routeLength="30.72" timeLoss="2.50" maxSpeed="1.30" waitingTime="0.00"/>
    </personinfo>
    <tripinfo id="B2_1_normal.0" depart="62.00" departLane="-361257727#0_1" departPos="5.10" departPosLat="0.00" departSpeed="6.77" departDelay="0.00" arrival="210.90" arrivalLane="-440471861#0_1" arrivalPos="31.52" arrivalPosLat="-0.00" arrivalSpeed="22.48" duration="148.90" routeLength="1397.68" waitingTime="0.00" waitingCount="0" stopTime="0.00" timeLoss="4.89" rerouteNo="1" devices="tripinfo_B2_1_normal.0 routing_B2_1_normal.0" vType="car" speedFactor="0.81" vaporized=""/>
    <personinfo id="pf_4_normal.2" depart="90.00" type="ped" speedFactor="0.85" duration="142.00" waitingTime="2.90" timeLoss="16.49" traveltime="142.00">
        <walk depart="90.00" departPos="25.00" arrival="160.60" arrivalPos="29.11" duration="70.60" routeLength="72.15" timeLoss="9.56" maxSpeed="1.18" waitingTime="2.90"/>
        <walk depart="160.60" departPos="29.11" arrival="232.00" arrivalPos="29.05" duration="71.40" routeLength="76.20" timeLoss="6.93" maxSpeed="1.18" waitingTime="0.00"/>
    </personinfo>
    <personinfo id="pf_4_normal.3" depart="135.00" type="ped" speedFactor="1.23" duration="100.60" waitingTime="3.60" timeLoss="13.66" traveltime="100.60">
        <walk depart="135.00" departPos="25.00" arrival="182.20" arrivalPos="29.11" duration="47.20" routeLength="72.15" timeLoss="4.92" maxSpeed="1.71" waitingTime="0.00"/>
        <walk depart="182.20" departPos="29.11" arrival="235.60" arrivalPos="29.05" duration="53.40" routeLength="76.20" timeLoss="8.74" maxSpeed="1.71" waitingTime="3.60"/>
    </personinfo>
    <tripinfo id="D2_1_normal.0" depart="93.70" departLane="140483224#1_2" departPos="7.20" departPosLat="0.00" departSpeed="28.94" departDelay="0.00" arrival="235.90" arrivalLane="-145894807#0_1" arrivalPos="260.95" arrivalPosLat="-0.00" arrivalSpeed="8.63" duration="142.20" routeLength="1090.66" waitingTime="49.90" waitingCount="1" stopTime="0.00" timeLoss="60.38" rerouteNo="1" devices="tripinfo_D2_1_normal.0 routing_D2_1_normal.0" vType="truck" speedFactor="1.04" vaporized=""/>
    <tripinfo id="B1_1_normal.0" depart="75.60" departLane="-361257727#0_1" departPos="2.30" departPosLat="0.00" departSpeed="9.92" departDelay="0.00" arrival="240.20" arrivalLane="-793339796#2_2" arrivalPos="82.50" arrivalPosLat="0.00" arrivalSpeed="31.61" duration="164.60" routeLength="1918.24" waitingTime="1.40" waitingCount="1" stopTime="0.00" timeLoss="51.14" rerouteNo="1" devices="tripinfo_B1_1_normal.0 routing_B1_1_normal.0" vType="tricycle" speedFactor="1.19" vaporized=""/>
    <tripinfo id="D3_1_normal.1" depart="201.70" departLane="140483224#1_2" departPos="5.10" departPosLat="0.00" departSpeed="24.32" departDelay="0.00" arrival="250.90" arrivalLane="-440471861#0_2" arrivalPos="31.52" arrivalPosLat="0.00" arrivalSpeed="24.29" duration="49.20" routeLength="1067.97" waitingTime="0.00" waitingCount="0" stopTime="0.00" timeLoss="3.52" rerouteNo="1" devices="tripinfo_D3_1_normal.1 routing_D3_1_normal.1" vType="car" speedFactor="0.88" vaporized=""/>
    <tripinfo id="D2_1_normal.1" depart="134.80" departLane="140483224#1_1" departPos="7.20" departPosLat="0.00" departSpeed="24.99" departDelay="0.00" arrival="251.80" arrivalLane="-145894807#0_1" arrivalPos="260.95" arrivalPosLat="0.00" arrivalSpeed="7.45" duration="117.00" routeLength="1090.66" waitingTime="4.60" waitingCount="1" stopTime="0.00" timeLoss="22.22" rerouteNo="1" devices="tripinfo_D2_1_normal.1 routing_D2_1_normal.1" vType="truck" speedFactor="0.90" vaporized=""/>
    <tripinfo id="D3_1_normal.2" depart="206.80" departLane="140483224#1_2" departPos="5.10" departPosLat="0.00" departSpeed="27.36" departDelay="0.00" arrival="252.40" arrivalLane="-440471861#0_2" arrivalPos="31.52" arrivalPosLat="0.00" arrivalSpeed="27.26" duration="45.60" routeLength="1067.97" waitingTime="0.00" waitingCount="0" stopTime="0.00" timeLoss="4.98" rerouteNo="1" devices="tripinfo_D3_1_normal.2 routing_D3_1_normal.2" vType="car" speedFactor="0.98" vaporized=""/>
    <tripinfo id="A1_1_normal.0" depart="161.60" departLane="-793339796#2_1" departPos="12.10" departPosLat="0.00" departSpeed="27.78" departDelay="3.70" arrival="255.30" arrivalLane="-145894807#0_1" arrivalPos="260.95" arrivalPosLat="0.00" arrivalSpeed="8.32" duration="93.70" routeLength="1049.72" waitingTime="0.00" waitingCount="0" stopTime="0.00" timeLoss="4.40" rerouteNo="1" devices="tripinfo_A1_1_normal.0 routing_A1_1_normal.0" vType="bus" speedFactor="1.00" vaporized=""/>
    <tripinfo id="D3_1_normal.3" depart="212.70" departLane="140483224#1_1" departPos="2.30" departPosLat="0.00" departSpeed="23.11" departDelay="0.00" arrival="264.60" arrivalLane="-440471861#0_2" arrivalPos="31.52" arrivalPosLat="0.00" arrivalSpeed="23.11" duration="51.90" routeLength="1070.77" waitingTime="0.00" waitingCount="0" stopTime="0.00" timeLoss="3.62" rerouteNo="1" devices="tripinfo_D3_1_normal.3 routing_D3_1_normal.3" vType="tricycle" speedFactor="0.83" vaporized=""/>
    <tripinfo id="B2_1_normal.1" depart="129.20" departLane="-361257727#0_1" departPos="2.30" departPosLat="0.00" departSpeed="7.15" departDelay="0.00" arrival="269.90" arrivalLane="-440471861#0_1" arrivalPos="31.52" arrivalPosLat="-0.00" arrivalSpeed="23.72" duration="140.70" routeLength="1400.48" waitingTime="0.00" waitingCount="0" stopTime="0.00" timeLoss="4.07" rerouteNo="1" devices="tripinfo_B2_1_normal.1 routing_B2_1_normal.1" vType="motorcycle" speedFactor="0.86" vaporized=""/>
    <tripinfo id="B2_1_normal.2" depart="150.30" departLane="-361257727#0_1" departPos="12.10" departPosLat="0.00" departSpeed="8.33" departDelay="0.00" arrival="277.50" arrivalLane="-440471861#0_1" arrivalPos="31.52" arrivalPosLat="-0.00" arrivalSpeed="27.76" duration="127.20" routeLength="1390.68" waitingTime="0.00" waitingCount="0" stopTime="0.00" timeLoss="11.04" rerouteNo="1" devices="tripinfo_B2_1_normal.2 routing_B2_1_normal.2" vType="bus" speedFactor="1.00" vaporized=""/>
    <tripinfo id="D1_1_normal.2" depart="92.30" departLane="140483224#1_1" departPos="5.10" departPosLat="0.00" departSpeed="23.64" departDelay="0.00" arrival="280.00" arrivalLane="-793339796#2_2" arrivalPos="82.50" arrivalPosLat="0.00" arrivalSpeed="23.62" duration="187.70" routeLength="1648.38" waitingTime="91.70" waitingCount="2" stopTime="0.00" timeLoss="115.12" rerouteNo="1" devices="tripinfo_D1_1_normal.2 routing_D1_1_normal.2" vType="car" speedFactor="0.85" vaporized=""/>
    <personinfo id="pf_4_normal.4" depart="180.00" type="ped" speedFactor="1.15" duration="102.70" waitingTime="0.00" timeLoss="10.19" traveltime="102.70">
        <walk depart="180.00" departPos="25.00" arrival="229.90" arrivalPos="29.11" duration="49.90" routeLength="72.15" timeLoss="4.91" maxSpeed="1.60" waitingTime="0.00"/>
        <walk depart="229.90" departPos="29.11" arrival="282.70" arrivalPos="29.05" duration="52.80" routeLength="76.20" timeLoss="5.28" maxSpeed="1.60" waitingTime="0.00"/>
    </personinfo>
    <tripinfo id="D1_1_normal.3" depart="117.10" departLane="140483224#1_1" departPos="8.10" departPosLat="0.00" departSpeed="27.78" departDelay="0.00" arrival="290.80" arrivalLane="-793339796#2_2" arrivalPos="82.50" arrivalPosLat="0.00" arrivalSpeed="24.12" duration="173.70" routeLength="1645.38" waitingTime="67.30" waitingCount="2" stopTime="0.00" timeLoss="112.14" rerouteNo="1" devices="tripinfo_D1_1_normal.3 routing_D1_1_normal.3" vType="jeep" speedFactor="1.00" vaporized=""/>
    <tripinfo id="A2_1_normal.2" depart="132.10" departLane="-793339796#2_1" departPos="5.10" departPosLat="0.00" departSpeed="31.70" departDelay="6.30" arrival="295.90" arrivalLane="-440471861#0_1" arrivalPos="31.52" arrivalPosLat="0.00" arrivalSpeed="31.66" duration="163.80" routeLength="1081.27" waitingTime="118.10" waitingCount="1" stopTime="0.00" timeLoss="129.68" rerouteNo="1" devices="tripinfo_A2_1_normal.2 routing_A2_1_normal.2" vType="car" speedFactor="1.14" vaporized=""/>
    <tripinfo id="A3_1_normal.0" depart="132.10" departLane="-793339796#2_2" departPos="8.10" departPosLat="0.00" departSpeed="27.78" departDelay="5.00" arrival="305.40" arrivalLane="-140483224#1_2" arrivalPos="64.04" arrivalPosLat="0.00" arrivalSpeed="27.72" duration="173.30" routeLength="1077.94" waitingTime="115.90" waitingCount="1" stopTime="0.00" timeLoss="132.92" rerouteNo="1" devices="tripinfo_A3_1_normal.0 routing_A3_1_normal.0" vType="jeep" speedFactor="1.00" vaporized=""/>
    <tripinfo id="D1_1_normal.4" depart="236.00" departLane="140483224#1_1" departPos="2.30" departPosLat="0.00" departSpeed="31.62" departDelay="0.00" arrival="306.00" arrivalLane="-793339796#2_2" arrivalPos="82.50" arrivalPosLat="0.00" arrivalSpeed="31.37" duration="70.00" routeLength="1651.18" waitingTime="0.00" waitingCount="0" stopTime="0.00" timeLoss="15.70" rerouteNo="1" devices="tripinfo_D1_1_normal.4 routing_D1_1_normal.4" vType="tricycle" speedFactor="1.14" vaporized=""/>
    <tripinfo id="D2_1_normal.2" depart="185.20" departLane="140483224#1_1" departPos="5.10" departPosLat="0.00" departSpeed="18.97" departDelay="0.00" arrival="312.00" arrivalLane="-145894807#0_1" arrivalPos="260.95" arrivalPosLat="0.00" arrivalSpeed="5.58" duration="126.80" routeLength="1092.76" waitingTime="0.00" waitingCount="0" stopTime="0.00" timeLoss="1.85" rerouteNo="1" devices="tripinfo_D2_1_normal.2 routing_D2_1_normal.2" vType="car" speedFactor="0.68" vaporized=""/>
    <tripinfo id="D2_1_normal.3" depart="223.20" departLane="140483224#1_1" departPos="12.10" departPosLat="0.00" departSpeed="27.78" departDelay="0.00" arrival="314.10" arrivalLane="-145894807#0_1" arrivalPos="260.95" arrivalPosLat="0.00" arrivalSpeed="7.44" duration="90.90" routeLength="1085.76" waitingTime="0.00" waitingCount="0" stopTime="0.00" timeLoss="5.77" rerouteNo="1" devices="tripinfo_D2_1_normal.3 routing_D2_1_normal.3" vType="bus" speedFactor="1.00" vaporized=""/>
    <tripinfo id="C1_1_normal.3" depart="142.00" departLane="440471861#0_1" departPos="2.30" departPosLat="0.00" departSpeed="24.57" departDelay="0.00" arrival="334.40" arrivalLane="-793339796#2_2" arrivalPos="82.50" arrivalPosLat="0.00" arrivalSpeed="24.31" duration="192.40" routeLength="1656.79" waitingTime="114.60" waitingCount="1" stopTime="0.00" timeLoss="123.69" rerouteNo="1" devices="tripinfo_C1_1_normal.3 routing_C1_1_normal.3" vType="motorcycle" speedFactor="0.88" vaporized=""/>
    <personinfo id="pf_4_normal.5" depart="225.00" type="ped" speedFactor="1.05" duration="118.90" waitingTime="5.10" timeLoss="16.84" traveltime="118.90">
        <walk depart="225.00" departPos="25.00" arrival="285.30" arrivalPos="29.11" duration="60.30" routeLength="72.15" timeLoss="10.66" maxSpeed="1.45" waitingTime="4.90"/>
        <walk depart="285.30" departPos="29.11" arrival="343.90" arrivalPos="29.05" duration="58.60" routeLength="76.20" timeLoss="6.18" maxSpeed="1.45" waitingTime="0.20"/>
    </personinfo>
    <tripinfo id="C1_1_normal.4" depart="227.40" departLane="440471861#0_1" departPos="5.10" departPosLat="0.00" departSpeed="21.03" departDelay="0.00" arrival="348.40" arrivalLane="-793339796#2_1" arrivalPos="82.50" arrivalPosLat="-0.00" arrivalSpeed="21.00" duration="121.00" routeLength="1653.99" waitingTime="22.70" waitingCount="1" stopTime="0.00" timeLoss="40.81" rerouteNo="1" devices="tripinfo_C1_1_normal.4 routing_C1_1_normal.4" vType="car" speedFactor="0.76" vaporized=""/>
    <tripinfo id="A1_1_normal.1" depart="261.00" departLane="-793339796#2_1" departPos="5.10" departPosLat="0.00" departSpeed="24.38" departDelay="9.70" arrival="366.30" arrivalLane="-145894807#0_1" arrivalPos="260.95" arrivalPosLat="0.00" arrivalSpeed="7.19" duration="105.30" routeLength="1056.72" waitingTime="0.00" waitingCount="0" stopTime="0.00" timeLoss="3.32" rerouteNo="1" devices="tripinfo_A1_1_normal.1 routing_A1_1_normal.1" vType="car" speedFactor="0.88" vaporized=""/>
    <tripinfo id="C1_1_normal.5" depart="294.40" departLane="440471861#0_1" departPos="5.10" departPosLat="0.00" departSpeed="23.79" departDelay="0.00" arrival="372.90" arrivalLane="-793339796#2_2" arrivalPos="82.50" arrivalPosLat="0.00" arrivalSpeed="23.71" duration="78.50" routeLength="1653.99" waitingTime="0.00" waitingCount="0" stopTime="0.00" timeLoss="7.61" rerouteNo="1" devices="tripinfo_C1_1_normal.5 routing_C1_1_normal.5" vType="car" speedFactor="0.86" vaporized=""/>
    <personinfo id="pf_4_normal.6" depart="270.00" type="ped" speedFactor="1.09" duration="109.20" waitingTime="0.00" timeLoss="11.09" traveltime="109.20">
        <walk depart="270.00" departPos="25.00" arrival="323.10" arrivalPos="29.11" duration="53.10" routeLength="72.15" timeLoss="5.39" maxSpeed="1.51" waitingTime="0.00"/>
        <walk depart="323.10" departPos="29.11" arrival="379.20" arrivalPos="29.05" duration="56.10" routeLength="76.20" timeLoss="5.71" maxSpeed="1.51" waitingTime="0.00"/>
    </personinfo>
    <tripinfo id="D1_1_normal.5" depart="315.20" departLane="140483224#1_1" departPos="8.10" departPosLat="0.00" departSpeed="27.78" departDelay="0.00" arrival="400.50" arrivalLane="-793339796#2_2" arrivalPos="82.50" arrivalPosLat="0.00" arrivalSpeed="24.71" duration="85.30" routeLength="1645.38" waitingTime="0.00" waitingCount="0" stopTime="0.00" timeLoss="23.80" rerouteNo="1" devices="tripinfo_D1_1_normal.5 routing_D1_1_normal.5" vType="jeep" speedFactor="1.00" vaporized=""/>
    <tripinfo id="A1_1_normal.2" depart="319.80" departLane="-793339796#2_1" departPos="8.10" departPosLat="0.00" departSpeed="27.78" departDelay="10.60" arrival="413.70" arrivalLane="-145894807#0_1" arrivalPos="260.95" arrivalPosLat="0.00" arrivalSpeed="8.33" duration="93.90" routeLength="1053.72" waitingTime="0.00" waitingCount="0" stopTime="0.00" timeLoss="4.48" rerouteNo="1" devices="tripinfo_A1_1_normal.2 routing_A1_1_normal.2" vType="jeep" speedFactor="1.00" vaporized=""/>
    <tripinfo id="C3_1_normal.4" depart="303.70" departLane="440471861#0_1" departPos="2.30" departPosLat="0.00" departSpeed="30.76" departDelay="0.00" arrival="416.90" arrivalLane="-140483224#1_2" arrivalPos="64.04" arrivalPosLat="0.00" arrivalSpeed="30.57" duration="113.20" routeLength="1055.58" waitingTime="58.20" waitingCount="2" stopTime="0.00" timeLoss="77.65" rerouteNo="1" devices="tripinfo_C3_1_normal.4 routing_C3_1_normal.4" vType="motorcycle" speedFactor="1.11" vaporized=""/>
    <tripinfo id="C2_1_normal.1" depart="322.20" departLane="440471861#0_2" departPos="5.10" departPosLat="0.00" departSpeed="25.94" departDelay="0.00" arrival="421.00" arrivalLane="-145894807#0_1" arrivalPos="260.95" arrivalPosLat="0.00" arrivalSpeed="7.70" duration="98.80" routeLength="1082.06" waitingTime="2.90" waitingCount="1" stopTime="0.00" timeLoss="7.48" rerouteNo="1" devices="tripinfo_C2_1_normal.1 routing_C2_1_normal.1" vType="car" speedFactor="0.93" vaporized=""/>
    <tripinfo id="C3_1_normal.2" depart="156.50" departLane="440471861#0_1" departPos="5.10" departPosLat="0.00" departSpeed="24.66" departDelay="0.00" arrival="422.20" arrivalLane="-140483224#1_1" arrivalPos="64.04" arrivalPosLat="-0.00" arrivalSpeed="24.55" duration="265.70" routeLength="1052.78" waitingTime="199.90" waitingCount="2" stopTime="0.00" timeLoss="221.49" rerouteNo="1" devices="tripinfo_C3_1_normal.2 routing_C3_1_normal.2" vType="car" speedFactor="0.89" vaporized=""/>
    <tripinfo id="C3_1_normal.3" depart="208.00" departLane="440471861#0_1" departPos="5.10" departPosLat="0.00" departSpeed="27.30" departDelay="0.00" arrival="423.50" arrivalLane="-140483224#1_1" arrivalPos="64.04" arrivalPosLat="-0.00" arrivalSpeed="27.02" duration="215.50" routeLength="1052.78" waitingTime="147.10" waitingCount="2" stopTime="0.00" timeLoss="175.54" rerouteNo="1" devices="tripinfo_C3_1_normal.3 routing_C3_1_normal.3" vType="car" speedFactor="0.98" vaporized=""/>
    <personinfo id="pf_4_normal.7" depart="315.00" type="ped" speedFactor="1.11" duration="109.10" waitingTime="2.60" timeLoss="13.26" traveltime="109.10">
        <walk depart="315.00" departPos="25.00" arrival="369.60" arrivalPos="29.11" duration="54.60" routeLength="72.15" timeLoss="7.99" maxSpeed="1.55" waitingTime="2.60"/>
        <walk depart="369.60" departPos="29.11" arrival="424.10" arrivalPos="29.05" duration="54.50" routeLength="76.20" timeLoss="5.27" maxSpeed="1.55" waitingTime="0.00"/>
    </personinfo>
    <tripinfo id="C3_1_normal.5" depart="323.90" departLane="440471861#0_1" departPos="5.10" departPosLat="0.00" departSpeed="27.44" departDelay="0.00" arrival="424.70" arrivalLane="-140483224#1_1" arrivalPos="64.04" arrivalPosLat="0.00" arrivalSpeed="27.43" duration="100.80" routeLength="1052.78" waitingTime="37.40" waitingCount="5" stopTime="0.00" timeLoss="61.04" rerouteNo="1" devices="tripinfo_C3_1_normal.5 routing_C3_1_normal.5" vType="car" speedFactor="0.99" vaporized=""/>
    <tripinfo id="C3_1_normal.1" depart="87.10" departLane="440471861#0_1" departPos="8.10" departPosLat="0.00" departSpeed="27.78" departDelay="0.00" arrival="429.20" arrivalLane="-140483224#1_2" arrivalPos="64.04" arrivalPosLat="0.00" arrivalSpeed="27.76" duration="342.10" routeLength="1049.78" waitingTime="264.60" waitingCount="3" stopTime="0.00" timeLoss="302.92" rerouteNo="1" devices="tripinfo_C3_1_normal.1 routing_C3_1_normal.1" vType="jeep" speedFactor="1.00" vaporized=""/>
    <tripinfo id="C3_1_normal.6" depart="361.50" departLane="440471861#0_1" departPos="8.10" departPosLat="0.00" departSpeed="27.78" departDelay="0.00" arrival="430.50" arrivalLane="-140483224#1_2" arrivalPos="64.04" arrivalPosLat="0.00" arrivalSpeed="27.77" duration="69.00" routeLength="1049.78" waitingTime="4.20" waitingCount="1" stopTime="0.00" timeLoss="29.88" rerouteNo="1" devices="tripinfo_C3_1_normal.6 routing_C3_1_normal.6" vType="jeep" speedFactor="1.00" vaporized=""/>
    <tripinfo id="D3_1_normal.4" depart="416.90" departLane="140483224#1_2" departPos="8.10" departPosLat="0.00" departSpeed="27.78" departDelay="0.30" arrival="464.40" arrivalLane="-440471861#0_2" arrivalPos="31.52" arrivalPosLat="0.00" arrivalSpeed="27.75" duration="47.50" routeLength="1064.97" waitingTime="0.00" waitingCount="0" stopTime="0.00" timeLoss="7.58" rerouteNo="1" devices="tripinfo_D3_1_normal.4 routing_D3_1_normal.4" vType="jeep" speedFactor="1.00" vaporized=""/>
    <personinfo id="pf_4_normal.8" depart="360.00" type="ped" speedFactor="0.99" duration="119.30" waitingTime="0.00" timeLoss="11.54" traveltime="119.30">
        <walk depart="360.00" departPos="25.00" arrival="418.20" arrivalPos="29.11" duration="58.20" routeLength="72.15" timeLoss="5.79" maxSpeed="1.38" waitingTime="0.00"/>
        <walk depart="418.20" departPos="29.11" arrival="479.30" arrivalPos="29.05" duration="61.10" routeLength="76.20" timeLoss="5.75" maxSpeed="1.38" waitingTime="0.00"/>
    </personinfo>
    <tripinfo id="D1_1_normal.6" depart="357.80" departLane="140483224#1_1" departPos="2.30" departPosLat="0.00" departSpeed="25.24" departDelay="0.00" arrival="480.90" arrivalLane="-793339796#2_2" arrivalPos="82.50" arrivalPosLat="0.00" arrivalSpeed="24.95" duration="123.10" routeLength="1651.18" waitingTime="43.30" waitingCount="2" stopTime="0.00" timeLoss="55.08" rerouteNo="1" devices="tripinfo_D1_1_normal.6 routing_D1_1_normal.6" vType="motorcycle" speedFactor="0.91" vaporized=""/>
    <tripinfo id="A2_1_normal.3" depart="132.50" departLane="-793339796#2_2" departPos="7.20" departPosLat="0.00" departSpeed="24.25" departDelay="2.60" arrival="509.90" arrivalLane="-440471861#0_1" arrivalPos="31.52" arrivalPosLat="-0.00" arrivalSpeed="28.33" duration="377.40" routeLength="1079.17" waitingTime="310.80" waitingCount="2" stopTime="0.00" timeLoss="339.27" rerouteNo="1" devices="tripinfo_A2_1_normal.3 routing_A2_1_normal.3" vType="truck" speedFactor="1.02" vaporized=""/>
    <tripinfo id="A3_1_normal.1" depart="215.00" departLane="-793339796#2_2" departPos="8.10" departPosLat="0.00" departSpeed="27.78" departDelay="21.60" arrival="511.20" arrivalLane="-140483224#1_2" arrivalPos="64.04" arrivalPosLat="-0.00" arrivalSpeed="27.74" duration="296.20" routeLength="1077.94" waitingTime="224.30" waitingCount="2" stopTime="0.00" timeLoss="255.91" rerouteNo="1" devices="tripinfo_A3_1_normal.1 routing_A3_1_normal.1" vType="jeep" speedFactor="1.00" vaporized=""/>
    <tripinfo id="A2_1_normal.4" depart="319.80" departLane="-793339796#2_2" departPos="5.10" departPosLat="0.00" departSpeed="26.48" departDelay="6.90" arrival="511.50" arrivalLane="-440471861#0_1" arrivalPos="31.52" arrivalPosLat="-0.00" arrivalSpeed="26.42" duration="191.70" routeLength="1081.27" waitingTime="122.70" waitingCount="2" stopTime="0.00" timeLoss="150.81" rerouteNo="1" devices="tripinfo_A2_1_normal.4 routing_A2_1_normal.4" vType="car" speedFactor="0.95" vaporized=""/>