<?xml version="1.0" encoding="UTF-8"?>

<!-- generated on 2025-12-02 17:42:59 by Eclipse SUMO sumo Version 1.24.0
<sumoConfiguration xmlns:xsi="http://www.w3.org/2001/XMLSchema-instance" xsi:noNamespaceSchemaLocation="http://sumo.dlr.de/xsd/sumoConfiguration.xsd">

    <input>
        <net-file value="Olivarez_traci\network/map1.net.xml"/>
        <route-files value="Olivarez_traci\demand/flows_slow_traffic.rou.xml"/>
        <additional-files value="Olivarez_traci\additionals/map.poly.xml,Olivarez_traci\ additionals/detectors.add.xml"/>
    </input>

    <output>
        <tripinfo-output value="Olivarez_traci\output_A2C\SD_A2C_trips.xml"/>
        <statistic-output value="Olivarez_traci\output_A2C\SD_A2C_stats.xml"/>
    </output>

    <time>
        <begin value="0"/>
        <end value="10800"/>
        <step-length value="0.1"/>
    </time>

    <processing>
        <lateral-resolution value="0.1"/>
        <collision.action value="none"/>
        <collision.check-junctions value="false"/>
        <collision.mingap-factor value="0"/>
    </processing>

    <report>
        <no-warnings value="true"/>
    </report>

    <traci_server>
        <remote-port value="65128"/>
    </traci_server>

    <gui_only>
        <delay value="0"/>
    </gui_only>

</sumoConfiguration>
-->

<tripinfos xmlns:xsi="http://www.w3.org/2001/XMLSchema-instance" xsi:noNamespaceSchemaLocation="http://sumo.dlr.de/xsd/tripinfo_file.xsd">
    <personinfo id="pf_2.0" depart="0.00" type="ped" speedFactor="0.93" duration="26.60" waitingTime="0.00" timeLoss="2.80" traveltime="26.60">
        <walk depart="0.00" departPos="15.09" arrival="26.60" arrivalPos="3.44" duration="26.60" routeLength="30.72" timeLoss="2.80" maxSpeed="1.29" waitingTime="0.00"/>
    </personinfo>
    <personinfo id="pf_2.2" depart="45.00" type="ped" speedFactor="1.10" duration="25.10" waitingTime="2.50" timeLoss="4.93" traveltime="25.10">
        <walk depart="45.00" departPos="15.09" arrival="70.10" arrivalPos="3.44" duration="25.10" routeLength="30.72" timeLoss="4.93" maxSpeed="1.52" waitingTime="2.50"/>
    </personinfo>
    <personinfo id="pf_2.1" depart="22.50" type="ped" speedFactor="1.06" duration="48.50" waitingTime="25.20" timeLoss="27.57" traveltime="48.50">
        <walk depart="22.50" departPos="15.09" arrival="71.00" arrivalPos="3.44" duration="48.50" routeLength="30.72" timeLoss="27.57" maxSpeed="1.47" waitingTime="25.20"/>
    </personinfo>
    <tripinfo id="A2_1.1" depart="16.40" departLane="-793339796#2_1" departPos="2.30" departPosLat="0.00" departSpeed="27.60" departDelay="0.00" arrival="75.90" arrivalLane="-440471861#0_2" arrivalPos="31.52" arrivalPosLat="0.00" arrivalSpeed="27.59" duration="59.50" routeLength="1084.07" waitingTime="0.00" waitingCount="0" stopTime="0.00" timeLoss="20.14" rerouteNo="1" devices="tripinfo_A2_1.1 routing_A2_1.1" vType="tricycle" speedFactor="0.99" vaporized=""/>
    <tripinfo id="A2_1.0" depart="8.90" departLane="-793339796#2_1" departPos="8.10" departPosLat="0.00" departSpeed="24.19" departDelay="0.00" arrival="88.60" arrivalLane="-440471861#0_1" arrivalPos="31.52" arrivalPosLat="0.00" arrivalSpeed="21.23" duration="79.70" routeLength="1078.27" waitingTime="0.00" waitingCount="0" stopTime="0.00" timeLoss="40.89" rerouteNo="1" devices="tripinfo_A2_1.0 routing_A2_1.0" vType="jeep" speedFactor="1.00" vaporized=""/>
    <personinfo id="pf_2.3" depart="67.50" type="ped" speedFactor="0.95" duration="30.50" waitingTime="4.50" timeLoss="7.32" traveltime="30.50">
        <walk depart="67.50" departPos="15.09" arrival="98.00" arrivalPos="3.44" duration="30.50" routeLength="30.72" timeLoss="7.32" maxSpeed="1.33" waitingTime="4.50"/>
    </personinfo>
    <tripinfo id="C3_1.1" depart="22.80" departLane="440471861#0_1" departPos="5.10" departPosLat="0.00" departSpeed="30.15" departDelay="0.00" arrival="101.30" arrivalLane="-140483224#1_1" arrivalPos="64.04" arrivalPosLat="-0.00" arrivalSpeed="30.09" duration="78.50" routeLength="1052.78" waitingTime="12.30" waitingCount="1" stopTime="0.00" timeLoss="42.34" rerouteNo="1" devices="tripinfo_C3_1.1 routing_C3_1.1" vType="car" speedFactor="1.09" vaporized=""/>
    <tripinfo id="D3_1.0" depart="15.30" departLane="140483224#1_1" departPos="2.30" departPosLat="0.00" departSpeed="24.29" departDelay="0.00" arrival="109.80" arrivalLane="-440471861#0_2" arrivalPos="31.52" arrivalPosLat="0.00" arrivalSpeed="24.01" duration="94.50" routeLength="1070.77" waitingTime="39.20" waitingCount="2" stopTime="0.00" timeLoss="48.67" rerouteNo="1" devices="tripinfo_D3_1.0 routing_D3_1.0" vType="motorcycle" speedFactor="0.87" vaporized=""/>
    <tripinfo id="C3_1.0" depart="8.60" departLane="440471861#0_1" departPos="7.20" departPosLat="0.00" departSpeed="27.65" departDelay="0.00" arrival="112.70" arrivalLane="-140483224#1_2" arrivalPos="64.04" arrivalPosLat="0.00" arrivalSpeed="27.64" duration="104.10" routeLength="1050.68" waitingTime="24.10" waitingCount="2" stopTime="0.00" timeLoss="64.76" rerouteNo="1" devices="tripinfo_C3_1.0 routing_C3_1.0" vType="truck" speedFactor="1.00" vaporized=""/>
    <personinfo id="pf_2.4" depart="90.00" type="ped" speedFactor="0.91" duration="27.00" waitingTime="0.00" timeLoss="2.61" traveltime="27.00">
        <walk depart="90.00" departPos="15.09" arrival="117.00" arrivalPos="3.44" duration="27.00" routeLength="30.72" timeLoss="2.61" maxSpeed="1.26" waitingTime="0.00"/>
    </personinfo>
    <tripinfo id="D1_1.0" depart="1.20" departLane="140483224#1_1" departPos="8.10" departPosLat="0.00" departSpeed="27.78" departDelay="0.00" arrival="130.20" arrivalLane="-793339796#2_2" arrivalPos="82.50" arrivalPosLat="0.00" arrivalSpeed="24.20" duration="129.00" routeLength="1645.38" waitingTime="10.60" waitingCount="2" stopTime="0.00" timeLoss="67.44" rerouteNo="1" devices="tripinfo_D1_1.0 routing_D1_1.0" vType="jeep" speedFactor="1.00" vaporized=""/>
    <tripinfo id="C2_1.0" depart="40.30" departLane="440471861#0_2" departPos="5.10" departPosLat="0.00" departSpeed="31.31" departDelay="0.00" arrival="136.10" arrivalLane="-145894807#0_1" arrivalPos="260.95" arrivalPosLat="-0.00" arrivalSpeed="9.32" duration="95.80" routeLength="1082.07" waitingTime="0.00" waitingCount="0" stopTime="0.00" timeLoss="20.08" rerouteNo="1" devices="tripinfo_C2_1.0 routing_C2_1.0" vType="car" speedFactor="1.13" vaporized=""/>
    <personinfo id="pf_2.5" depart="112.50" type="ped" speedFactor="0.84" duration="33.10" waitingTime="4.00" timeLoss="6.84" traveltime="33.10">
        <walk depart="112.50" departPos="15.09" arrival="145.60" arrivalPos="3.44" duration="33.10" routeLength="30.72" timeLoss="6.84" maxSpeed="1.17" waitingTime="4.00"/>
    </personinfo>
    <personinfo id="pf_4.1" depart="22.50" type="ped" speedFactor="0.95" duration="124.30" waitingTime="0.00" timeLoss="12.34" traveltime="124.30">
        <walk depart="22.50" departPos="25.00" arrival="82.90" arrivalPos="29.11" duration="60.40" routeLength="72.15" timeLoss="5.95" maxSpeed="1.32" waitingTime="0.00"/>
        <walk depart="82.90" departPos="29.11" arrival="146.80" arrivalPos="29.05" duration="63.90" routeLength="76.20" timeLoss="6.39" maxSpeed="1.32" waitingTime="0.00"/>
    </personinfo>
    <personinfo id="pf_4.0" depart="0.00" type="ped" speedFactor="0.80" duration="147.50" waitingTime="0.00" timeLoss="14.64" traveltime="147.50">
        <walk depart="0.00" departPos="25.00" arrival="71.60" arrivalPos="29.11" duration="71.60" routeLength="72.15" timeLoss="6.98" maxSpeed="1.12" waitingTime="0.00"/>
        <walk depart="71.60" departPos="29.11" arrival="147.50" arrivalPos="29.05" duration="75.90" routeLength="76.20" timeLoss="7.65" maxSpeed="1.12" waitingTime="0.00"/>
    </personinfo>
    <tripinfo id="A2_1.2" depart="41.40" departLane="-793339796#2_1" departPos="8.10" departPosLat="0.00" departSpeed="24.19" departDelay="0.00" arrival="158.80" arrivalLane="-440471861#0_1" arrivalPos="31.52" arrivalPosLat="0.00" arrivalSpeed="21.19" duration="117.40" routeLength="1078.27" waitingTime="18.70" waitingCount="2" stopTime="0.00" timeLoss="78.55" rerouteNo="1" devices="tripinfo_A2_1.2 routing_A2_1.2" vType="jeep" speedFactor="1.00" vaporized=""/>
    <tripinfo id="A2_1.3" depart="54.10" departLane="-793339796#2_1" departPos="5.10" departPosLat="0.00" departSpeed="24.76" departDelay="0.00" arrival="160.20" arrivalLane="-440471861#0_1" arrivalPos="31.52" arrivalPosLat="-0.00" arrivalSpeed="23.37" duration="106.10" routeLength="1081.27" waitingTime="18.00" waitingCount="3" stopTime="0.00" timeLoss="62.35" rerouteNo="1" devices="tripinfo_A2_1.3 routing_A2_1.3" vType="car" speedFactor="0.89" vaporized=""/>
    <tripinfo id="D2_1.0" depart="67.30" departLane="140483224#1_1" departPos="5.10" departPosLat="0.00" departSpeed="24.99" departDelay="0.00" arrival="163.70" arrivalLane="-145894807#0_1" arrivalPos="260.95" arrivalPosLat="0.00" arrivalSpeed="7.41" duration="96.40" routeLength="1092.76" waitingTime="0.00" waitingCount="0" stopTime="0.00" timeLoss="1.56" rerouteNo="1" devices="tripinfo_D2_1.0 routing_D2_1.0" vType="car" speedFactor="0.90" vaporized=""/>
    <tripinfo id="A3_1.0" depart="31.00" departLane="-793339796#2_2" departPos="5.10" departPosLat="0.00" departSpeed="26.08" departDelay="0.00" arrival="166.00" arrivalLane="-140483224#1_2" arrivalPos="64.04" arrivalPosLat="0.00" arrivalSpeed="28.05" duration="135.00" routeLength="1080.94" waitingTime="62.30" waitingCount="3" stopTime="0.00" timeLoss="95.00" rerouteNo="1" devices="tripinfo_A3_1.0 routing_A3_1.0" vType="car" speedFactor="1.01" vaporized=""/>
    <tripinfo id="C3_1.2" depart="47.20" departLane="440471861#0_1" departPos="5.10" departPosLat="0.00" departSpeed="27.02" departDelay="0.00" arrival="170.60" arrivalLane="-140483224#1_2" arrivalPos="64.04" arrivalPosLat="0.00" arrivalSpeed="27.02" duration="123.40" routeLength="1052.78" waitingTime="60.80" waitingCount="1" stopTime="0.00" timeLoss="82.97" rerouteNo="1" devices="tripinfo_C3_1.2 routing_C3_1.2" vType="car" speedFactor="0.97" vaporized=""/>
    <personinfo id="pf_4.2" depart="45.00" type="ped" speedFactor="0.94" duration="126.60" waitingTime="0.00" timeLoss="12.61" traveltime="126.60">
        <walk depart="45.00" departPos="25.00" arrival="106.70" arrivalPos="29.11" duration="61.70" routeLength="72.15" timeLoss="6.26" maxSpeed="1.30" waitingTime="0.00"/>
        <walk depart="106.70" departPos="29.11" arrival="171.60" arrivalPos="29.05" duration="64.90" routeLength="76.20" timeLoss="6.35" maxSpeed="1.30" waitingTime="0.00"/>
    </personinfo>
    <personinfo id="pf_4.3" depart="67.50" type="ped" speedFactor="1.12" duration="105.70" waitingTime="0.00" timeLoss="10.50" traveltime="105.70">
        <walk depart="67.50" departPos="25.00" arrival="119.00" arrivalPos="29.11" duration="51.50" routeLength="72.15" timeLoss="5.20" maxSpeed="1.56" waitingTime="0.00"/>
        <walk depart="119.00" departPos="29.11" arrival="173.20" arrivalPos="29.05" duration="54.20" routeLength="76.20" timeLoss="5.30" maxSpeed="1.56" waitingTime="0.00"/>
    </personinfo>
    <tripinfo id="A3_1.1" depart="61.00" departLane="-793339796#2_1" departPos="7.20" departPosLat="0.00" departSpeed="24.33" departDelay="0.00" arrival="175.10" arrivalLane="-140483224#1_1" arrivalPos="64.04" arrivalPosLat="-0.00" arrivalSpeed="26.35" duration="114.10" routeLength="1078.84" waitingTime="19.80" waitingCount="2" stopTime="0.00" timeLoss="71.62" rerouteNo="1" devices="tripinfo_A3_1.1 routing_A3_1.1" vType="truck" speedFactor="0.95" vaporized=""/>
    <tripinfo id="B2_1.0" depart="13.90" departLane="-361257727#0_1" departPos="8.10" departPosLat="0.00" departSpeed="8.33" departDelay="0.00" arrival="176.20" arrivalLane="-440471861#0_1" arrivalPos="31.52" arrivalPosLat="-0.00" arrivalSpeed="21.43" duration="162.30" routeLength="1394.68" waitingTime="10.80" waitingCount="1" stopTime="0.00" timeLoss="45.64" rerouteNo="1" devices="tripinfo_B2_1.0 routing_B2_1.0" vType="jeep" speedFactor="1.00" vaporized=""/>
    <tripinfo id="C3_1.3" depart="87.10" departLane="440471861#0_1" departPos="5.10" departPosLat="0.00" departSpeed="28.17" departDelay="0.00" arrival="176.50" arrivalLane="-140483224#1_1" arrivalPos="64.04" arrivalPosLat="-0.00" arrivalSpeed="28.13" duration="89.40" routeLength="1052.78" waitingTime="17.20" waitingCount="1" stopTime="0.00" timeLoss="50.64" rerouteNo="1" devices="tripinfo_C3_1.3 routing_C3_1.3" vType="car" speedFactor="1.01" vaporized=""/>
    <tripinfo id="C3_1.4" depart="109.30" departLane="440471861#0_1" departPos="5.10" departPosLat="0.00" departSpeed="23.82" departDelay="0.00" arrival="180.30" arrivalLane="-140483224#1_2" arrivalPos="64.04" arrivalPosLat="0.00" arrivalSpeed="23.79" duration="71.00" routeLength="1052.78" waitingTime="0.00" waitingCount="0" stopTime="0.00" timeLoss="25.17" rerouteNo="1" devices="tripinfo_C3_1.4 routing_C3_1.4" vType="car" speedFactor="0.86" vaporized=""/>
    <personinfo id="pf_2.6" depart="135.00" type="ped" speedFactor="1.04" duration="47.10" waitingTime="23.50" timeLoss="25.91" traveltime="47.10">
        <walk depart="135.00" departPos="15.09" arrival="182.10" arrivalPos="3.44" duration="47.10" routeLength="30.72" timeLoss="25.91" maxSpeed="1.45" waitingTime="23.50"/>
    </personinfo>
    <personinfo id="pf_2.7" depart="157.50" type="ped" speedFactor="0.97" duration="25.90" waitingTime="0.70" timeLoss="3.09" traveltime="25.90">
        <walk depart="157.50" departPos="15.09" arrival="183.40" arrivalPos="3.44" duration="25.90" routeLength="30.72" timeLoss="3.09" maxSpeed="1.35" waitingTime="0.70"/>
    </personinfo>
    <tripinfo id="C1_1.0" depart="35.30" departLane="440471861#0_1" departPos="5.10" departPosLat="0.00" departSpeed="23.95" departDelay="0.00" arrival="188.90" arrivalLane="-793339796#2_2" arrivalPos="82.50" arrivalPosLat="0.00" arrivalSpeed="18.33" duration="153.60" routeLength="1653.99" waitingTime="37.10" waitingCount="3" stopTime="0.00" timeLoss="83.21" rerouteNo="1" devices="tripinfo_C1_1.0 routing_C1_1.0" vType="car" speedFactor="0.86" vaporized=""/>
    <tripinfo id="D1_1.2" depart="74.50" departLane="140483224#1_1" departPos="5.10" departPosLat="0.00" departSpeed="25.44" departDelay="0.00" arrival="201.20" arrivalLane="-793339796#2_1" arrivalPos="82.50" arrivalPosLat="0.00" arrivalSpeed="22.06" duration="126.70" routeLength="1648.38" waitingTime="14.20" waitingCount="3" stopTime="0.00" timeLoss="59.29" rerouteNo="1" devices="tripinfo_D1_1.2 routing_D1_1.2" vType="car" speedFactor="0.92" vaporized=""/>
    <tripinfo id="D1_1.1" depart="47.90" departLane="140483224#1_1" departPos="7.20" departPosLat="0.00" departSpeed="29.99" departDelay="0.00" arrival="208.30" arrivalLane="-793339796#2_1" arrivalPos="82.50" arrivalPosLat="-0.00" arrivalSpeed="19.95" duration="160.40" routeLength="1646.28" waitingTime="24.40" waitingCount="4" stopTime="0.00" timeLoss="103.30" rerouteNo="1" devices="tripinfo_D1_1.1 routing_D1_1.1" vType="truck" speedFactor="1.08" vaporized=""/>
    <personinfo id="pf_4.4" depart="90.00" type="ped" speedFactor="0.97" duration="122.20" waitingTime="0.00" timeLoss="11.88" traveltime="122.20">
        <walk depart="90.00" departPos="25.00" arrival="149.70" arrivalPos="29.11" duration="59.70" routeLength="72.15" timeLoss="6.05" maxSpeed="1.34" waitingTime="0.00"/>
        <walk depart="149.70" departPos="29.11" arrival="212.20" arrivalPos="29.05" duration="62.50" routeLength="76.20" timeLoss="5.84" maxSpeed="1.34" waitingTime="0.00"/>
    </personinfo>
    <tripinfo id="A2_1.5" depart="129.90" departLane="-793339796#2_2" departPos="5.10" departPosLat="0.00" departSpeed="26.08" departDelay="0.00" arrival="212.80" arrivalLane="-440471861#0_2" arrivalPos="31.52" arrivalPosLat="0.00" arrivalSpeed="29.33" duration="82.90" routeLength="1081.27" waitingTime="12.60" waitingCount="1" stopTime="0.00" timeLoss="46.03" rerouteNo="1" devices="tripinfo_A2_1.5 routing_A2_1.5" vType="car" speedFactor="1.06" vaporized=""/>
    <tripinfo id="C1_1.2" depart="63.70" departLane="440471861#0_1" departPos="5.10" departPosLat="0.00" departSpeed="29.43" departDelay="0.00" arrival="214.30" arrivalLane="-793339796#2_2" arrivalPos="82.50" arrivalPosLat="0.00" arrivalSpeed="10.55" duration="150.60" routeLength="1653.99" waitingTime="41.30" waitingCount="1" stopTime="0.00" timeLoss="93.27" rerouteNo="1" devices="tripinfo_C1_1.2 routing_C1_1.2" vType="car" speedFactor="1.06" vaporized=""/>
    <tripinfo id="A3_1.2" depart="127.10" departLane="-793339796#2_1" departPos="2.30" departPosLat="0.00" departSpeed="20.11" departDelay="0.00" arrival="216.00" arrivalLane="-140483224#1_2" arrivalPos="64.04" arrivalPosLat="0.00" arrivalSpeed="27.20" duration="88.90" routeLength="1083.74" waitingTime="19.70" waitingCount="3" stopTime="0.00" timeLoss="47.65" rerouteNo="1" devices="tripinfo_A3_1.2 routing_A3_1.2" vType="tricycle" speedFactor="0.98" vaporized=""/>
    <tripinfo id="C2_1.1" depart="54.60" departLane="440471861#0_2" departPos="2.30" departPosLat="0.00" departSpeed="27.66" departDelay="0.00" arrival="216.60" arrivalLane="-145894807#0_1" arrivalPos="260.95" arrivalPosLat="0.00" arrivalSpeed="8.05" duration="162.00" routeLength="1084.87" waitingTime="66.90" waitingCount="2" stopTime="0.00" timeLoss="76.21" rerouteNo="1" devices="tripinfo_C2_1.1 routing_C2_1.1" vType="motorcycle" speedFactor="1.00" vaporized=""/>
    <personinfo id="pf_2.8" depart="180.00" type="ped" speedFactor="0.96" duration="39.10" waitingTime="13.40" timeLoss="16.02" traveltime="39.10">
        <walk depart="180.00" departPos="15.09" arrival="219.10" arrivalPos="3.44" duration="39.10" routeLength="30.72" timeLoss="16.02" maxSpeed="1.33" waitingTime="13.40"/>
    </personinfo>
    <tripinfo id="A2_1.4" depart="125.80" departLane="-793339796#2_1" departPos="12.10" departPosLat="0.00" departSpeed="23.52" departDelay="0.00" arrival="227.10" arrivalLane="-440471861#0_1" arrivalPos="31.52" arrivalPosLat="0.00" arrivalSpeed="21.26" duration="101.30" routeLength="1074.27" waitingTime="9.20" waitingCount="1" stopTime="0.00" timeLoss="62.62" rerouteNo="1" devices="tripinfo_A2_1.4 routing_A2_1.4" vType="bus" speedFactor="1.00" vaporized=""/>
    <personinfo id="pf_4.5" depart="112.50" type="ped" speedFactor="0.99" duration="120.20" waitingTime="0.00" timeLoss="12.09" traveltime="120.20">
        <walk depart="112.50" departPos="25.00" arrival="170.90" arrivalPos="29.11" duration="58.40" routeLength="72.15" timeLoss="5.82" maxSpeed="1.37" waitingTime="0.00"/>
        <walk depart="170.90" departPos="29.11" arrival="232.70" arrivalPos="29.05" duration="61.80" routeLength="76.20" timeLoss="6.27" maxSpeed="1.37" waitingTime="0.00"/>
    </personinfo>
    <personinfo id="pf_2.9" depart="202.50" type="ped" speedFactor="0.81" duration="30.30" waitingTime="0.00" timeLoss="3.07" traveltime="30.30">
        <walk depart="202.50" departPos="15.09" arrival="232.80" arrivalPos="3.44" duration="30.30" routeLength="30.72" timeLoss="3.07" maxSpeed="1.13" waitingTime="0.00"/>
    </personinfo>
    <personinfo id="pf_1.0" depart="0.00" type="ped" speedFactor="1.06" duration="235.30" waitingTime="0.00" timeLoss="23.60" traveltime="235.30">
        <walk depart="0.00" departPos="25.00" arrival="235.30" arrivalPos="3.44" duration="235.30" routeLength="311.67" timeLoss="23.60" maxSpeed="1.47" waitingTime="0.00"/>
    </personinfo>
    <tripinfo id="C1_1.1" depart="57.10" departLane="440471861#0_1" departPos="8.10" departPosLat="0.00" departSpeed="27.78" departDelay="0.00" arrival="240.30" arrivalLane="-793339796#2_2" arrivalPos="82.50" arrivalPosLat="0.00" arrivalSpeed="24.71" duration="183.20" routeLength="1650.99" waitingTime="44.50" waitingCount="2" stopTime="0.00" timeLoss="122.66" rerouteNo="1" devices="tripinfo_C1_1.1 routing_C1_1.1" vType="jeep" speedFactor="1.00" vaporized=""/>
    <tripinfo id="C1_1.3" depart="82.10" departLane="440471861#0_1" departPos="7.20" departPosLat="0.00" departSpeed="27.96" departDelay="0.00" arrival="243.60" arrivalLane="-793339796#2_2" arrivalPos="82.50" arrivalPosLat="0.00" arrivalSpeed="25.28" duration="161.50" routeLength="1651.89" waitingTime="19.00" waitingCount="1" stopTime="0.00" timeLoss="101.31" rerouteNo="1" devices="tripinfo_C1_1.3 routing_C1_1.3" vType="truck" speedFactor="1.01" vaporized=""/>
    <tripinfo id="C1_1.5" depart="131.40" departLane="440471861#0_1" departPos="5.10" departPosLat="0.00" departSpeed="27.71" departDelay="0.00" arrival="244.80" arrivalLane="-793339796#2_2" arrivalPos="82.50" arrivalPosLat="0.00" arrivalSpeed="26.73" duration="113.40" routeLength="1653.99" waitingTime="0.00" waitingCount="0" stopTime="0.00" timeLoss="52.61" rerouteNo="1" devices="tripinfo_C1_1.5 routing_C1_1.5" vType="car" speedFactor="1.00" vaporized=""/>
    <tripinfo id="B2_1.1" depart="62.00" departLane="-361257727#0_1" departPos="7.20" departPosLat="0.00" departSpeed="8.50" departDelay="0.00" arrival="250.60" arrivalLane="-440471861#0_1" arrivalPos="31.52" arrivalPosLat="-0.00" arrivalSpeed="22.26" duration="188.60" routeLength="1395.58" waitingTime="40.50" waitingCount="1" stopTime="0.00" timeLoss="74.02" rerouteNo="1" devices="tripinfo_B2_1.1 routing_B2_1.1" vType="truck" speedFactor="1.02" vaporized=""/>
    <personinfo id="pf_4.6" depart="135.00" type="ped" speedFactor="0.95" duration="124.80" waitingTime="0.00" timeLoss="12.57" traveltime="124.80">
        <walk depart="135.00" departPos="25.00" arrival="195.80" arrivalPos="29.11" duration="60.80" routeLength="72.15" timeLoss="6.22" maxSpeed="1.32" waitingTime="0.00"/>
        <walk depart="195.80" departPos="29.11" arrival="259.80" arrivalPos="29.05" duration="64.00" routeLength="76.20" timeLoss="6.35" maxSpeed="1.32" waitingTime="0.00"/>
    </personinfo>
    <tripinfo id="C3_1.5" depart="156.50" departLane="440471861#0_1" departPos="7.20" departPosLat="0.00" departSpeed="28.70" departDelay="0.00" arrival="260.60" arrivalLane="-140483224#1_2" arrivalPos="64.04" arrivalPosLat="0.00" arrivalSpeed="28.63" duration="104.10" routeLength="1050.68" waitingTime="32.80" waitingCount="1" stopTime="0.00" timeLoss="66.12" rerouteNo="1" devices="tripinfo_C3_1.5 routing_C3_1.5" vType="truck" speedFactor="1.03" vaporized=""/>
    <tripinfo id="A1_1.0" depart="157.90" departLane="-793339796#2_1" departPos="8.10" departPosLat="0.00" departSpeed="24.19" departDelay="0.00" arrival="264.60" arrivalLane="-145894807#0_1" arrivalPos="260.95" arrivalPosLat="0.00" arrivalSpeed="8.32" duration="106.70" routeLength="1053.72" waitingTime="0.00" waitingCount="0" stopTime="0.00" timeLoss="17.23" rerouteNo="1" devices="tripinfo_A1_1.0 routing_A1_1.0" vType="jeep" speedFactor="1.00" vaporized=""/>
    <tripinfo id="D1_1.3" depart="92.30" departLane="140483224#1_1" departPos="8.10" departPosLat="0.00" departSpeed="27.78" departDelay="0.00" arrival="266.10" arrivalLane="-793339796#2_2" arrivalPos="82.50" arrivalPosLat="0.00" arrivalSpeed="13.66" duration="173.80" routeLength="1645.38" waitingTime="43.80" waitingCount="2" stopTime="0.00" timeLoss="112.28" rerouteNo="1" devices="tripinfo_D1_1.3 routing_D1_1.3" vType="jeep" speedFactor="1.00" vaporized=""/>
    <tripinfo id="B1_1.0" depart="75.60" departLane="-361257727#0_1" departPos="5.10" departPosLat="0.00" departSpeed="8.88" departDelay="0.00" arrival="267.70" arrivalLane="-793339796#2_2" arrivalPos="82.50" arrivalPosLat="0.00" arrivalSpeed="16.83" duration="192.10" routeLength="1915.44" waitingTime="14.20" waitingCount="1" stopTime="0.00" timeLoss="65.84" rerouteNo="1" devices="tripinfo_B1_1.0 routing_B1_1.0" vType="car" speedFactor="1.07" vaporized=""/>
    <tripinfo id="C3_1.6" depart="208.00" departLane="440471861#0_1" departPos="8.10" departPosLat="0.00" departSpeed="27.78" departDelay="0.00" arrival="273.50" arrivalLane="-140483224#1_1" arrivalPos="64.04" arrivalPosLat="0.00" arrivalSpeed="27.73" duration="65.50" routeLength="1049.78" waitingTime="0.00" waitingCount="0" stopTime="0.00" timeLoss="26.37" rerouteNo="1" devices="tripinfo_C3_1.6 routing_C3_1.6" vType="jeep" speedFactor="1.00" vaporized=""/>
    <personinfo id="pf_4.7" depart="157.50" type="ped" speedFactor="1.00" duration="118.50" waitingTime="0.00" timeLoss="11.86" traveltime="118.50">
        <walk depart="157.50" departPos="25.00" arrival="215.20" arrivalPos="29.11" duration="57.70" routeLength="72.15" timeLoss="5.84" maxSpeed="1.39" waitingTime="0.00"/>
        <walk depart="215.20" departPos="29.11" arrival="276.00" arrivalPos="29.05" duration="60.80" routeLength="76.20" timeLoss="6.02" maxSpeed="1.39" waitingTime="0.00"/>
    </personinfo>
    <personinfo id="pf_2.10" depart="225.00" type="ped" speedFactor="1.04" duration="53.10" waitingTime="29.20" timeLoss="31.76" traveltime="53.10">
        <walk depart="225.00" departPos="15.09" arrival="278.10" arrivalPos="3.44" duration="53.10" routeLength="30.72" timeLoss="31.76" maxSpeed="1.44" waitingTime="29.20"/>
    </personinfo>
    <personinfo id="pf_2.11" depart="247.50" type="ped" speedFactor="1.01" duration="30.90" waitingTime="6.70" timeLoss="9.03" traveltime="30.90">
        <walk depart="247.50" departPos="15.09" arrival="278.40" arrivalPos="3.44" duration="30.90" routeLength="30.72" timeLoss="9.03" maxSpeed="1.40" waitingTime="6.70"/>
    </personinfo>
    <tripinfo id="C1_1.4" depart="125.70" departLane="440471861#0_1" departPos="7.20" departPosLat="0.00" departSpeed="28.84" departDelay="0.00" arrival="278.90" arrivalLane="-793339796#2_2" arrivalPos="82.50" arrivalPosLat="0.00" arrivalSpeed="4.74" duration="153.20" routeLength="1651.89" waitingTime="10.40" waitingCount="1" stopTime="0.00" timeLoss="94.89" rerouteNo="1" devices="tripinfo_C1_1.4 routing_C1_1.4" vType="truck" speedFactor="1.04" vaporized=""/>
    <tripinfo id="C1_1.6" depart="142.00" departLane="440471861#0_1" departPos="2.30" departPosLat="0.00" departSpeed="30.93" departDelay="0.00" arrival="287.20" arrivalLane="-793339796#2_2" arrivalPos="82.50" arrivalPosLat="0.00" arrivalSpeed="18.47" duration="145.20" routeLength="1656.79" waitingTime="68.30" waitingCount="2" stopTime="0.00" timeLoss="90.68" rerouteNo="1" devices="tripinfo_C1_1.6 routing_C1_1.6" vType="motorcycle" speedFactor="1.11" vaporized=""/>
    <tripinfo id="C1_1.7" depart="160.50" departLane="440471861#0_1" departPos="2.30" departPosLat="0.00" departSpeed="25.95" departDelay="0.00" arrival="297.20" arrivalLane="-793339796#2_2" arrivalPos="82.50" arrivalPosLat="0.00" arrivalSpeed="25.89" duration="136.70" routeLength="1656.79" waitingTime="31.50" waitingCount="1" stopTime="0.00" timeLoss="71.69" rerouteNo="1" devices="tripinfo_C1_1.7 routing_C1_1.7" vType="tricycle" speedFactor="0.93" vaporized=""/>
    <tripinfo id="D3_1.1" depart="179.60" departLane="140483224#1_2" departPos="5.10" departPosLat="0.00" departSpeed="32.17" departDelay="0.00" arrival="299.50" arrivalLane="-440471861#0_2" arrivalPos="31.52" arrivalPosLat="0.00" arrivalSpeed="31.08" duration="119.90" routeLength="1067.97" waitingTime="62.70" waitingCount="1" stopTime="0.00" timeLoss="85.41" rerouteNo="1" devices="tripinfo_D3_1.1 routing_D3_1.1" vType="car" speedFactor="1.16" vaporized=""/>
    <tripinfo id="D3_1.2" depart="201.70" departLane="140483224#1_1" departPos="2.30" departPosLat="0.00" departSpeed="27.45" departDelay="0.00" arrival="300.70" arrivalLane="-440471861#0_2" arrivalPos="31.52" arrivalPosLat="0.00" arrivalSpeed="27.15" duration="99.00" routeLength="1070.77" waitingTime="33.70" waitingCount="2" stopTime="0.00" timeLoss="58.43" rerouteNo="1" devices="tripinfo_D3_1.2 routing_D3_1.2" vType="motorcycle" speedFactor="0.99" vaporized=""/>
    <personinfo id="pf_4.8" depart="180.00" type="ped" speedFactor="0.96" duration="124.00" waitingTime="0.00" timeLoss="12.24" traveltime="124.00">
        <walk depart="180.00" departPos="25.00" arrival="240.50" arrivalPos="29.11" duration="60.50" routeLength="72.15" timeLoss="6.15" maxSpeed="1.33" waitingTime="0.00"/>
        <walk depart="240.50" departPos="29.11" arrival="304.00" arrivalPos="29.05" duration="63.50" routeLength="76.20" timeLoss="6.09" maxSpeed="1.33" waitingTime="0.00"/>
    </personinfo>
    <tripinfo id="A3_1.3" depart="173.20" departLane="-793339796#2_2" departPos="5.10" departPosLat="0.00" departSpeed="26.08" departDelay="0.00" arrival="314.70" arrivalLane="-140483224#1_2" arrivalPos="64.04" arrivalPosLat="0.00" arrivalSpeed="27.12" duration="141.50" routeLength="1080.94" waitingTime="71.70" waitingCount="3" stopTime="0.00" timeLoss="100.26" rerouteNo="1" devices="tripinfo_A3_1.3 routing_A3_1.3" vType="car" speedFactor="0.98" vaporized=""/>
    <tripinfo id="D3_1.3" depart="206.80" departLane="140483224#1_1" departPos="7.20" departPosLat="0.00" departSpeed="27.14" departDelay="0.00" arrival="315.20" arrivalLane="-440471861#0_2" arrivalPos="31.52" arrivalPosLat="0.00" arrivalSpeed="22.24" duration="108.40" routeLength="1065.87" waitingTime="32.60" waitingCount="1" stopTime="0.00" timeLoss="67.56" rerouteNo="1" devices="tripinfo_D3_1.3 routing_D3_1.3" vType="truck" speedFactor="0.98" vaporized=""/>
    <personinfo id="pf_2.12" depart="270.00" type="ped" speedFactor="0.97" duration="49.60" waitingTime="24.40" timeLoss="26.87" traveltime="49.60">
        <walk depart="270.00" departPos="15.09" arrival="319.60" arrivalPos="3.44" duration="49.60" routeLength="30.72" timeLoss="26.87" maxSpeed="1.35" waitingTime="24.40"/>
    </personinfo>
    <tripinfo id="A3_1.5" depart="207.60" departLane="-793339796#2_1" departPos="7.20" departPosLat="0.00" departSpeed="24.33" departDelay="0.00" arrival="321.30" arrivalLane="-140483224#1_2" arrivalPos="64.04" arrivalPosLat="0.00" arrivalSpeed="29.33" duration="113.70" routeLength="1078.84" waitingTime="36.30" waitingCount="1" stopTime="0.00" timeLoss="75.48" rerouteNo="1" devices="tripinfo_A3_1.5 routing_A3_1.5" vType="truck" speedFactor="1.06" vaporized=""/>
    <personinfo id="pf_2.13" depart="292.50" type="ped" speedFactor="0.87" duration="29.00" waitingTime="0.90" timeLoss="3.70" traveltime="29.00">