<?xml version="1.0" encoding="UTF-8"?>

<!-- generated on 2025-12-03 22:05:30 by Eclipse SUMO sumo Version 1.24.0
<sumoConfiguration xmlns:xsi="http://www.w3.org/2001/XMLSchema-instance" xsi:noNamespaceSchemaLocation="http://sumo.dlr.de/xsd/sumoConfiguration.xsd">

    <input>
        <net-file value="Olivarez_traci\network/map1.net.xml"/>
        <route-files value="Olivarez_traci\demand\flows_normal_traffic.rou.xml"/>
        <additional-files value="Olivarez_traci\additionals/map.poly.xml,Olivarez_traci\ additionals/detectors.add.xml"/>
    </input>

    <output>
        <tripinfo-output value="Olivarez_traci\output_A2C\SP_A2C_Unified_Normal_trips.xml"/>
        <statistic-output value="Olivarez_traci\output_A2C\SP_A2C_Unified_Normal_stats.xml"/>
    </output>

    <time>
        <begin value="0"/>
        <end value="10800"/>
        <step-length value="0.1"/>
    </time>

    <processing>
        <lateral-resolution value="0.1"/>
        <collision.action value="none"/>
        <collision.check-junctions value="false"/>
        <collision.mingap-factor value="0"/>
    </processing>

    <report>
        <no-warnings value="true"/>
    </report>

    <traci_server>
        <remote-port value="55499"/>
    </traci_server>

    <gui_only>
        <delay value="0"/>
    </gui_only>

</sumoConfiguration>
-->

<tripinfos xmlns:xsi="http://www.w3.org/2001/XMLSchema-instance" xsi:noNamespaceSchemaLocation="http://sumo.dlr.de/xsd/tripinfo_file.xsd">
    <personinfo id="pf_2.0" depart="0.00" type="ped" speedFactor="1.03" duration="23.90" waitingTime="0.00" timeLoss="2.52" traveltime="23.90">
        <walk depart="0.00" departPos="15.09" arrival="23.90" arrivalPos="3.44" duration="23.90" routeLength="30.72" timeLoss="2.52" maxSpeed="1.44" waitingTime="0.00"/>
    </personinfo>
    <tripinfo id="A2_1.0" depart="8.90" departLane="-793339796#2_1" departPos="2.30" departPosLat="0.00" departSpeed="27.90" departDelay="0.00" arrival="59.00" arrivalLane="-440471861#0_1" arrivalPos="31.52" arrivalPosLat="-0.00" arrivalSpeed="27.76" duration="50.10" routeLength="1084.07" waitingTime="6.70" waitingCount="1" stopTime="0.00" timeLoss="11.24" rerouteNo="1" devices="tripinfo_A2_1.0 routing_A2_1.0" vType="motorcycle" speedFactor="1.00" vaporized=""/>
    <tripinfo id="A2_1.1" depart="16.40" departLane="-793339796#2_1" departPos="5.10" departPosLat="0.00" departSpeed="26.58" departDelay="0.00" arrival="59.20" arrivalLane="-440471861#0_2" arrivalPos="31.52" arrivalPosLat="0.00" arrivalSpeed="26.52" duration="42.80" routeLength="1081.27" waitingTime="0.00" waitingCount="0" stopTime="0.00" timeLoss="2.09" rerouteNo="1" devices="tripinfo_A2_1.1 routing_A2_1.1" vType="car" speedFactor="0.96" vaporized=""/>
    <personinfo id="pf_2.1" depart="45.00" type="ped" speedFactor="1.00" duration="26.70" waitingTime="2.00" timeLoss="4.54" traveltime="26.70">
        <walk depart="45.00" departPos="15.09" arrival="71.70" arrivalPos="3.44" duration="26.70" routeLength="30.72" timeLoss="4.54" maxSpeed="1.39" waitingTime="2.00"/>
    </personinfo>
    <tripinfo id="D1_1.0" depart="1.20" departLane="140483224#1_1" departPos="5.10" departPosLat="0.00" departSpeed="23.74" departDelay="0.00" arrival="94.50" arrivalLane="-793339796#2_2" arrivalPos="82.50" arrivalPosLat="0.00" arrivalSpeed="23.63" duration="93.30" routeLength="1648.38" waitingTime="3.60" waitingCount="1" stopTime="0.00" timeLoss="21.07" rerouteNo="1" devices="tripinfo_D1_1.0 routing_D1_1.0" vType="car" speedFactor="0.85" vaporized=""/>
    <tripinfo id="D3_1.0" depart="15.30" departLane="140483224#1_2" departPos="5.10" departPosLat="0.00" departSpeed="27.91" departDelay="0.00" arrival="102.00" arrivalLane="-440471861#0_2" arrivalPos="31.52" arrivalPosLat="0.00" arrivalSpeed="27.88" duration="86.70" routeLength="1067.97" waitingTime="32.80" waitingCount="2" stopTime="0.00" timeLoss="46.88" rerouteNo="1" devices="tripinfo_D3_1.0 routing_D3_1.0" vType="car" speedFactor="1.00" vaporized=""/>
    <tripinfo id="C3_1.0" depart="22.80" departLane="440471861#0_1" departPos="8.10" departPosLat="0.00" departSpeed="27.78" departDelay="0.00" arrival="107.70" arrivalLane="-140483224#1_2" arrivalPos="64.04" arrivalPosLat="0.00" arrivalSpeed="27.77" duration="84.90" routeLength="1049.78" waitingTime="20.80" waitingCount="1" stopTime="0.00" timeLoss="45.73" rerouteNo="1" devices="tripinfo_C3_1.0 routing_C3_1.0" vType="jeep" speedFactor="1.00" vaporized=""/>
    <personinfo id="pf_4.0" depart="0.00" type="ped" speedFactor="0.95" duration="124.50" waitingTime="0.00" timeLoss="12.20" traveltime="124.50">
        <walk depart="0.00" departPos="25.00" arrival="60.60" arrivalPos="29.11" duration="60.60" routeLength="72.15" timeLoss="5.98" maxSpeed="1.32" waitingTime="0.00"/>
        <walk depart="60.60" departPos="29.11" arrival="124.50" arrivalPos="29.05" duration="63.90" routeLength="76.20" timeLoss="6.22" maxSpeed="1.32" waitingTime="0.00"/>
    </personinfo>
    <personinfo id="pf_2.2" depart="90.00" type="ped" speedFactor="1.02" duration="37.40" waitingTime="13.20" timeLoss="15.65" traveltime="37.40">
        <walk depart="90.00" departPos="15.09" arrival="127.40" arrivalPos="3.44" duration="37.40" routeLength="30.72" timeLoss="15.65" maxSpeed="1.41" waitingTime="13.20"/>
    </personinfo>
    <tripinfo id="C2_1.0" depart="40.30" departLane="440471861#0_2" departPos="2.30" departPosLat="0.00" departSpeed="27.09" departDelay="0.00" arrival="139.70" arrivalLane="-145894807#0_1" arrivalPos="260.95" arrivalPosLat="0.00" arrivalSpeed="8.06" duration="99.40" routeLength="1084.86" waitingTime="1.00" waitingCount="1" stopTime="0.00" timeLoss="11.89" rerouteNo="1" devices="tripinfo_C2_1.0 routing_C2_1.0" vType="tricycle" speedFactor="0.98" vaporized=""/>
    <tripinfo id="C1_1.0" depart="35.30" departLane="440471861#0_1" departPos="5.10" departPosLat="0.00" departSpeed="28.06" departDelay="0.00" arrival="145.20" arrivalLane="-793339796#2_2" arrivalPos="82.50" arrivalPosLat="0.00" arrivalSpeed="27.97" duration="109.90" routeLength="1653.99" waitingTime="24.30" waitingCount="2" stopTime="0.00" timeLoss="49.88" rerouteNo="1" devices="tripinfo_C1_1.0 routing_C1_1.0" vType="car" speedFactor="1.01" vaporized=""/>
    <personinfo id="pf_4.1" depart="45.00" type="ped" speedFactor="1.01" duration="116.90" waitingTime="0.00" timeLoss="11.45" traveltime="116.90">
        <walk depart="45.00" departPos="25.00" arrival="101.70" arrivalPos="29.11" duration="56.70" routeLength="72.15" timeLoss="5.41" maxSpeed="1.41" waitingTime="0.00"/>
        <walk depart="101.70" departPos="29.11" arrival="161.90" arrivalPos="29.05" duration="60.20" routeLength="76.20" timeLoss="6.04" maxSpeed="1.41" waitingTime="0.00"/>
    </personinfo>
    <tripinfo id="A2_1.2" depart="136.90" departLane="-793339796#2_1" departPos="8.10" departPosLat="0.00" departSpeed="27.78" departDelay="11.10" arrival="175.80" arrivalLane="-440471861#0_1" arrivalPos="31.52" arrivalPosLat="0.00" arrivalSpeed="27.72" duration="38.90" routeLength="1078.27" waitingTime="0.00" waitingCount="0" stopTime="0.00" timeLoss="0.04" rerouteNo="1" devices="tripinfo_A2_1.2 routing_A2_1.2" vType="jeep" speedFactor="1.00" vaporized=""/>
    <tripinfo id="A2_1.3" depart="137.20" departLane="-793339796#2_1" departPos="5.10" departPosLat="0.00" departSpeed="23.73" departDelay="7.30" arrival="179.00" arrivalLane="-440471861#0_1" arrivalPos="31.52" arrivalPosLat="0.00" arrivalSpeed="26.04" duration="41.80" routeLength="1081.27" waitingTime="0.00" waitingCount="0" stopTime="0.00" timeLoss="0.34" rerouteNo="1" devices="tripinfo_A2_1.3 routing_A2_1.3" vType="car" speedFactor="0.94" vaporized=""/>
    <personinfo id="pf_2.3" depart="135.00" type="ped" speedFactor="0.97" duration="49.20" waitingTime="23.70" timeLoss="26.33" traveltime="49.20">
        <walk depart="135.00" departPos="15.09" arrival="184.20" arrivalPos="3.44" duration="49.20" routeLength="30.72" timeLoss="26.33" maxSpeed="1.34" waitingTime="23.70"/>
    </personinfo>
    <tripinfo id="B2_1.0" depart="62.00" departLane="-361257727#0_1" departPos="5.10" departPosLat="0.00" departSpeed="7.79" departDelay="0.00" arrival="192.60" arrivalLane="-440471861#0_1" arrivalPos="31.52" arrivalPosLat="-0.00" arrivalSpeed="25.96" duration="130.60" routeLength="1397.68" waitingTime="0.00" waitingCount="0" stopTime="0.00" timeLoss="5.36" rerouteNo="1" devices="tripinfo_B2_1.0 routing_B2_1.0" vType="car" speedFactor="0.93" vaporized=""/>
    <personinfo id="pf_2.4" depart="180.00" type="ped" speedFactor="1.15" duration="21.90" waitingTime="0.20" timeLoss="2.63" traveltime="21.90">
        <walk depart="180.00" departPos="15.09" arrival="201.90" arrivalPos="3.44" duration="21.90" routeLength="30.72" timeLoss="2.63" maxSpeed="1.59" waitingTime="0.20"/>
    </personinfo>
    <tripinfo id="A3_1.0" depart="136.90" departLane="-793339796#2_2" departPos="5.10" departPosLat="0.00" departSpeed="26.39" departDelay="9.80" arrival="203.10" arrivalLane="-140483224#1_2" arrivalPos="64.04" arrivalPosLat="0.00" arrivalSpeed="26.33" duration="66.20" routeLength="1080.94" waitingTime="12.70" waitingCount="1" stopTime="0.00" timeLoss="23.63" rerouteNo="1" devices="tripinfo_A3_1.0 routing_A3_1.0" vType="car" speedFactor="0.95" vaporized=""/>
    <tripinfo id="C1_1.2" depart="82.10" departLane="440471861#0_1" departPos="8.10" departPosLat="0.00" departSpeed="27.78" departDelay="0.00" arrival="216.20" arrivalLane="-793339796#2_2" arrivalPos="82.50" arrivalPosLat="0.00" arrivalSpeed="24.48" duration="134.10" routeLength="1650.99" waitingTime="29.40" waitingCount="2" stopTime="0.00" timeLoss="73.50" rerouteNo="1" devices="tripinfo_C1_1.2 routing_C1_1.2" vType="jeep" speedFactor="1.00" vaporized=""/>
    <personinfo id="pf_4.2" depart="90.00" type="ped" speedFactor="0.97" duration="127.90" waitingTime="5.50" timeLoss="17.78" traveltime="127.90">
        <walk depart="90.00" departPos="25.00" arrival="149.90" arrivalPos="29.11" duration="59.90" routeLength="72.15" timeLoss="6.34" maxSpeed="1.35" waitingTime="0.40"/>
        <walk depart="149.90" departPos="29.11" arrival="217.90" arrivalPos="29.05" duration="68.00" routeLength="76.20" timeLoss="11.43" maxSpeed="1.35" waitingTime="5.10"/>
    </personinfo>
    <tripinfo id="C3_1.1" depart="87.10" departLane="440471861#0_1" departPos="12.10" departPosLat="0.00" departSpeed="27.78" departDelay="0.00" arrival="219.80" arrivalLane="-140483224#1_2" arrivalPos="64.04" arrivalPosLat="0.00" arrivalSpeed="27.73" duration="132.70" routeLength="1045.78" waitingTime="58.50" waitingCount="2" stopTime="0.00" timeLoss="93.66" rerouteNo="1" devices="tripinfo_C3_1.1 routing_C3_1.1" vType="bus" speedFactor="1.00" vaporized=""/>
    <tripinfo id="C1_1.1" depart="63.70" departLane="440471861#0_1" departPos="12.10" departPosLat="0.00" departSpeed="27.78" departDelay="0.00" arrival="220.10" arrivalLane="-793339796#2_2" arrivalPos="82.50" arrivalPosLat="0.00" arrivalSpeed="24.61" duration="156.40" routeLength="1646.99" waitingTime="48.80" waitingCount="2" stopTime="0.00" timeLoss="95.99" rerouteNo="1" devices="tripinfo_C1_1.1 routing_C1_1.1" vType="bus" speedFactor="1.00" vaporized=""/>
    <tripinfo id="D1_1.1" depart="74.50" departLane="140483224#1_1" departPos="8.10" departPosLat="0.00" departSpeed="27.78" departDelay="0.00" arrival="225.00" arrivalLane="-793339796#2_2" arrivalPos="82.50" arrivalPosLat="0.00" arrivalSpeed="24.26" duration="150.50" routeLength="1645.38" waitingTime="29.00" waitingCount="3" stopTime="0.00" timeLoss="88.86" rerouteNo="1" devices="tripinfo_D1_1.1 routing_D1_1.1" vType="jeep" speedFactor="1.00" vaporized=""/>
    <tripinfo id="D1_1.2" depart="92.30" departLane="140483224#1_1" departPos="5.10" departPosLat="0.00" departSpeed="26.79" departDelay="0.00" arrival="226.30" arrivalLane="-793339796#2_2" arrivalPos="82.50" arrivalPosLat="0.00" arrivalSpeed="26.03" duration="134.00" routeLength="1648.38" waitingTime="15.40" waitingCount="3" stopTime="0.00" timeLoss="69.95" rerouteNo="1" devices="tripinfo_D1_1.2 routing_D1_1.2" vType="car" speedFactor="0.96" vaporized=""/>
    <tripinfo id="B1_1.0" depart="75.60" departLane="-361257727#0_1" departPos="5.10" departPosLat="0.00" departSpeed="8.25" departDelay="0.00" arrival="231.50" arrivalLane="-793339796#2_1" arrivalPos="82.50" arrivalPosLat="-0.00" arrivalSpeed="11.29" duration="155.90" routeLength="1915.44" waitingTime="0.00" waitingCount="0" stopTime="0.00" timeLoss="20.04" rerouteNo="1" devices="tripinfo_B1_1.0 routing_B1_1.0" vType="car" speedFactor="0.99" vaporized=""/>
    <tripinfo id="A3_1.1" depart="193.40" departLane="-793339796#2_1" departPos="2.30" departPosLat="0.00" departSpeed="28.47" departDelay="0.00" arrival="238.30" arrivalLane="-140483224#1_2" arrivalPos="64.04" arrivalPosLat="0.00" arrivalSpeed="28.38" duration="44.90" routeLength="1083.74" waitingTime="0.00" waitingCount="0" stopTime="0.00" timeLoss="5.40" rerouteNo="1" devices="tripinfo_A3_1.1 routing_A3_1.1" vType="tricycle" speedFactor="1.02" vaporized=""/>
    <personinfo id="pf_4.3" depart="135.00" type="ped" speedFactor="0.99" duration="119.80" waitingTime="0.00" timeLoss="11.88" traveltime="119.80">
        <walk depart="135.00" departPos="25.00" arrival="193.20" arrivalPos="29.11" duration="58.20" routeLength="72.15" timeLoss="5.71" maxSpeed="1.37" waitingTime="0.00"/>
        <walk depart="193.20" departPos="29.11" arrival="254.80" arrivalPos="29.05" duration="61.60" routeLength="76.20" timeLoss="6.17" maxSpeed="1.37" waitingTime="0.00"/>
    </personinfo>
    <personinfo id="pf_1.0" depart="0.00" type="ped" speedFactor="1.06" duration="259.10" waitingTime="23.70" timeLoss="47.40" traveltime="259.10">
        <walk depart="0.00" departPos="25.00" arrival="259.10" arrivalPos="3.44" duration="259.10" routeLength="311.67" timeLoss="47.40" maxSpeed="1.47" waitingTime="23.70"/>
    </personinfo>
    <tripinfo id="D2_1.0" depart="93.70" departLane="140483224#1_2" departPos="7.20" departPosLat="0.00" departSpeed="28.45" departDelay="0.00" arrival="259.30" arrivalLane="-145894807#0_1" arrivalPos="260.95" arrivalPosLat="-0.00" arrivalSpeed="8.49" duration="165.60" routeLength="1090.66" waitingTime="53.30" waitingCount="3" stopTime="0.00" timeLoss="82.31" rerouteNo="1" devices="tripinfo_D2_1.0 routing_D2_1.0" vType="truck" speedFactor="1.02" vaporized=""/>
    <personinfo id="pf_2.5" depart="225.00" type="ped" speedFactor="0.98" duration="35.50" waitingTime="10.20" timeLoss="12.83" traveltime="35.50">
        <walk depart="225.00" departPos="15.09" arrival="260.50" arrivalPos="3.44" duration="35.50" routeLength="30.72" timeLoss="12.83" maxSpeed="1.36" waitingTime="10.20"/>
    </personinfo>
    <tripinfo id="D2_1.1" depart="134.80" departLane="140483224#1_1" departPos="8.10" departPosLat="0.00" departSpeed="27.78" departDelay="0.00" arrival="264.80" arrivalLane="-145894807#0_1" arrivalPos="260.95" arrivalPosLat="0.00" arrivalSpeed="8.28" duration="130.00" routeLength="1089.76" waitingTime="24.10" waitingCount="2" stopTime="0.00" timeLoss="44.85" rerouteNo="1" devices="tripinfo_D2_1.1 routing_D2_1.1" vType="jeep" speedFactor="1.00" vaporized=""/>
    <tripinfo id="D1_1.3" depart="117.10" departLane="140483224#1_1" departPos="7.20" departPosLat="0.00" departSpeed="25.89" departDelay="0.00" arrival="271.30" arrivalLane="-793339796#2_2" arrivalPos="82.50" arrivalPosLat="0.00" arrivalSpeed="25.43" duration="154.20" routeLength="1646.28" waitingTime="43.80" waitingCount="2" stopTime="0.00" timeLoss="88.08" rerouteNo="1" devices="tripinfo_D1_1.3 routing_D1_1.3" vType="truck" speedFactor="0.93" vaporized=""/>
    <tripinfo id="D3_1.1" depart="203.10" departLane="140483224#1_2" departPos="5.10" departPosLat="0.00" departSpeed="22.64" departDelay="1.40" arrival="273.80" arrivalLane="-440471861#0_2" arrivalPos="31.52" arrivalPosLat="0.00" arrivalSpeed="22.60" duration="70.70" routeLength="1067.97" waitingTime="9.40" waitingCount="2" stopTime="0.00" timeLoss="21.63" rerouteNo="1" devices="tripinfo_D3_1.1 routing_D3_1.1" vType="car" speedFactor="0.82" vaporized=""/>
    <tripinfo id="D3_1.2" depart="206.80" departLane="140483224#1_2" departPos="5.10" departPosLat="0.00" departSpeed="29.15" departDelay="0.00" arrival="275.10" arrivalLane="-440471861#0_2" arrivalPos="31.52" arrivalPosLat="0.00" arrivalSpeed="25.13" duration="68.30" routeLength="1067.97" waitingTime="0.90" waitingCount="1" stopTime="0.00" timeLoss="30.14" rerouteNo="1" devices="tripinfo_D3_1.2 routing_D3_1.2" vType="car" speedFactor="1.05" vaporized=""/>
    <tripinfo id="C1_1.3" depart="142.00" departLane="440471861#0_1" departPos="8.10" departPosLat="0.00" departSpeed="27.78" departDelay="0.00" arrival="275.50" arrivalLane="-793339796#2_1" arrivalPos="82.50" arrivalPosLat="-0.00" arrivalSpeed="24.71" duration="133.50" routeLength="1650.99" waitingTime="25.40" waitingCount="2" stopTime="0.00" timeLoss="72.96" rerouteNo="1" devices="tripinfo_C1_1.3 routing_C1_1.3" vType="jeep" speedFactor="1.00" vaporized=""/>
    <tripinfo id="C3_1.2" depart="156.50" departLane="440471861#0_1" departPos="8.10" departPosLat="0.00" departSpeed="27.78" departDelay="0.00" arrival="275.50" arrivalLane="-140483224#1_2" arrivalPos="64.04" arrivalPosLat="0.00" arrivalSpeed="27.73" duration="119.00" routeLength="1049.78" waitingTime="49.10" waitingCount="1" stopTime="0.00" timeLoss="79.82" rerouteNo="1" devices="tripinfo_C3_1.2 routing_C3_1.2" vType="jeep" speedFactor="1.00" vaporized=""/>
    <tripinfo id="D3_1.3" depart="212.70" departLane="140483224#1_2" departPos="8.10" departPosLat="0.00" departSpeed="27.78" departDelay="0.00" arrival="280.70" arrivalLane="-440471861#0_2" arrivalPos="31.52" arrivalPosLat="0.00" arrivalSpeed="27.73" duration="68.00" routeLength="1064.97" waitingTime="4.70" waitingCount="1" stopTime="0.00" timeLoss="28.13" rerouteNo="1" devices="tripinfo_D3_1.3 routing_D3_1.3" vType="jeep" speedFactor="1.00" vaporized=""/>
    <tripinfo id="A1_1.0" depart="157.90" departLane="-793339796#2_1" departPos="2.30" departPosLat="0.00" departSpeed="26.36" departDelay="0.00" arrival="288.60" arrivalLane="-145894807#0_1" arrivalPos="260.95" arrivalPosLat="0.00" arrivalSpeed="7.69" duration="130.70" routeLength="1094.97" waitingTime="32.90" waitingCount="2" stopTime="0.00" timeLoss="39.34" rerouteNo="1" devices="tripinfo_A1_1.0 routing_A1_1.0" vType="motorcycle" speedFactor="0.95" vaporized=""/>
    <personinfo id="pf_2.6" depart="270.00" type="ped" speedFactor="1.00" duration="25.40" waitingTime="1.00" timeLoss="3.32" traveltime="25.40">
        <walk depart="270.00" departPos="15.09" arrival="295.40" arrivalPos="3.44" duration="25.40" routeLength="30.72" timeLoss="3.32" maxSpeed="1.39" waitingTime="1.00"/>
    </personinfo>
    <personinfo id="pf_4.4" depart="180.00" type="ped" speedFactor="1.02" duration="116.20" waitingTime="0.00" timeLoss="11.89" traveltime="116.20">
        <walk depart="180.00" departPos="25.00" arrival="236.50" arrivalPos="29.11" duration="56.50" routeLength="72.15" timeLoss="5.77" maxSpeed="1.42" waitingTime="0.00"/>
        <walk depart="236.50" departPos="29.11" arrival="296.20" arrivalPos="29.05" duration="59.70" routeLength="76.20" timeLoss="6.12" maxSpeed="1.42" waitingTime="0.00"/>
    </personinfo>
    <tripinfo id="B2_1.1" depart="129.20" departLane="-361257727#0_1" departPos="8.10" departPosLat="0.00" departSpeed="8.33" departDelay="0.00" arrival="314.20" arrivalLane="-440471861#0_1" arrivalPos="31.52" arrivalPosLat="-0.00" arrivalSpeed="27.75" duration="185.00" routeLength="1394.68" waitingTime="48.70" waitingCount="1" stopTime="0.00" timeLoss="68.25" rerouteNo="1" devices="tripinfo_B2_1.1 routing_B2_1.1" vType="jeep" speedFactor="1.00" vaporized=""/>
    <tripinfo id="A3_1.2" depart="214.60" departLane="-793339796#2_2" departPos="5.10" departPosLat="0.00" departSpeed="24.15" departDelay="0.00" arrival="314.70" arrivalLane="-140483224#1_2" arrivalPos="64.04" arrivalPosLat="0.00" arrivalSpeed="27.10" duration="100.10" routeLength="1080.94" waitingTime="42.10" waitingCount="2" stopTime="0.00" timeLoss="58.70" rerouteNo="1" devices="tripinfo_A3_1.2 routing_A3_1.2" vType="car" speedFactor="0.98" vaporized=""/>
    <tripinfo id="D2_1.2" depart="185.20" departLane="140483224#1_1" departPos="5.10" departPosLat="0.00" departSpeed="28.21" departDelay="0.00" arrival="317.10" arrivalLane="-145894807#0_1" arrivalPos="260.95" arrivalPosLat="0.00" arrivalSpeed="8.42" duration="131.90" routeLength="1092.76" waitingTime="32.00" waitingCount="3" stopTime="0.00" timeLoss="47.88" rerouteNo="1" devices="tripinfo_D2_1.2 routing_D2_1.2" vType="car" speedFactor="1.02" vaporized=""/>
    <personinfo id="pf_1.1" depart="45.00" type="ped" speedFactor="0.94" duration="274.50" waitingTime="8.90" timeLoss="35.34" traveltime="274.50">
        <walk depart="45.00" departPos="25.00" arrival="319.50" arrivalPos="3.44" duration="274.50" routeLength="311.67" timeLoss="35.34" maxSpeed="1.30" waitingTime="8.90"/>
    </personinfo>
    <tripinfo id="D1_1.4" depart="236.00" departLane="140483224#1_1" departPos="7.20" departPosLat="0.00" departSpeed="26.48" departDelay="0.00" arrival="322.40" arrivalLane="-793339796#2_2" arrivalPos="82.50" arrivalPosLat="0.00" arrivalSpeed="25.99" duration="86.40" routeLength="1646.28" waitingTime="0.00" waitingCount="0" stopTime="0.00" timeLoss="21.69" rerouteNo="1" devices="tripinfo_D1_1.4 routing_D1_1.4" vType="truck" speedFactor="0.95" vaporized=""/>
    <tripinfo id="A3_1.4" depart="229.40" departLane="-793339796#2_2" departPos="8.10" departPosLat="0.00" departSpeed="27.78" departDelay="1.80" arrival="322.70" arrivalLane="-140483224#1_1" arrivalPos="64.04" arrivalPosLat="-0.00" arrivalSpeed="27.73" duration="93.30" routeLength="1077.94" waitingTime="11.90" waitingCount="3" stopTime="0.00" timeLoss="52.90" rerouteNo="1" devices="tripinfo_A3_1.4 routing_A3_1.4" vType="jeep" speedFactor="1.00" vaporized=""/>
    <tripinfo id="D2_1.3" depart="223.20" departLane="140483224#1_1" departPos="2.30" departPosLat="0.00" departSpeed="26.42" departDelay="0.00" arrival="323.20" arrivalLane="-145894807#0_1" arrivalPos="260.95" arrivalPosLat="0.00" arrivalSpeed="7.87" duration="100.00" routeLength="1095.56" waitingTime="0.00" waitingCount="0" stopTime="0.00" timeLoss="10.15" rerouteNo="1" devices="tripinfo_D2_1.3 routing_D2_1.3" vType="motorcycle" speedFactor="0.95" vaporized=""/>
    <tripinfo id="C3_1.3" depart="208.00" departLane="440471861#0_1" departPos="2.30" departPosLat="0.00" departSpeed="26.97" departDelay="0.00" arrival="326.60" arrivalLane="-140483224#1_2" arrivalPos="64.04" arrivalPosLat="0.00" arrivalSpeed="26.91" duration="118.60" routeLength="1055.58" waitingTime="54.20" waitingCount="3" stopTime="0.00" timeLoss="78.05" rerouteNo="1" devices="tripinfo_C3_1.3 routing_C3_1.3" vType="tricycle" speedFactor="0.97" vaporized=""/>
    <tripinfo id="C1_1.4" depart="227.40" departLane="440471861#0_1" departPos="2.30" departPosLat="0.00" departSpeed="29.51" departDelay="0.00" arrival="336.00" arrivalLane="-793339796#2_2" arrivalPos="82.50" arrivalPosLat="0.00" arrivalSpeed="29.29" duration="108.60" routeLength="1656.79" waitingTime="41.50" waitingCount="1" stopTime="0.00" timeLoss="51.41" rerouteNo="1" devices="tripinfo_C1_1.4 routing_C1_1.4" vType="motorcycle" speedFactor="1.06" vaporized=""/>
    <personinfo id="pf_4.5" depart="225.00" type="ped" speedFactor="1.01" duration="119.10" waitingTime="1.90" timeLoss="13.42" traveltime="119.10">
        <walk depart="225.00" departPos="25.00" arrival="281.80" arrivalPos="29.11" duration="56.80" routeLength="72.15" timeLoss="5.40" maxSpeed="1.40" waitingTime="0.00"/>
        <walk depart="281.80" departPos="29.11" arrival="344.10" arrivalPos="29.05" duration="62.30" routeLength="76.20" timeLoss="8.02" maxSpeed="1.40" waitingTime="1.90"/>
    </personinfo>
    <personinfo id="pf_2.7" depart="315.00" type="ped" speedFactor="1.04" duration="35.90" waitingTime="12.40" timeLoss="14.69" traveltime="35.90">
        <walk depart="315.00" departPos="15.09" arrival="350.90" arrivalPos="3.44" duration="35.90" routeLength="30.72" timeLoss="14.69" maxSpeed="1.45" waitingTime="12.40"/>
    </personinfo>
    <tripinfo id="A1_1.1" depart="257.10" departLane="-793339796#2_1" departPos="8.10" departPosLat="0.00" departSpeed="27.78" departDelay="5.80" arrival="351.00" arrivalLane="-145894807#0_1" arrivalPos="260.95" arrivalPosLat="0.00" arrivalSpeed="8.29" duration="93.90" routeLength="1053.72" waitingTime="0.00" waitingCount="0" stopTime="0.00" timeLoss="4.44" rerouteNo="1" devices="tripinfo_A1_1.1 routing_A1_1.1" vType="jeep" speedFactor="1.00" vaporized=""/>
    <tripinfo id="A3_1.3" depart="222.10" departLane="-793339796#2_1" departPos="2.30" departPosLat="0.00" departSpeed="24.80" departDelay="0.00" arrival="351.10" arrivalLane="-140483224#1_2" arrivalPos="64.04" arrivalPosLat="0.00" arrivalSpeed="24.66" duration="129.00" routeLength="1083.74" waitingTime="55.90" waitingCount="3" stopTime="0.00" timeLoss="83.53" rerouteNo="1" devices="tripinfo_A3_1.3 routing_A3_1.3" vType="motorcycle" speedFactor="0.89" vaporized=""/>
    <tripinfo id="B2_1.2" depart="150.30" departLane="-361257727#0_1" departPos="2.30" departPosLat="0.00" departSpeed="7.32" departDelay="0.00" arrival="365.60" arrivalLane="-440471861#0_1" arrivalPos="31.52" arrivalPosLat="-0.00" arrivalSpeed="24.37" duration="215.30" routeLength="1400.48" waitingTime="64.90" waitingCount="2" stopTime="0.00" timeLoss="81.65" rerouteNo="1" devices="tripinfo_B2_1.2 routing_B2_1.2" vType="tricycle" speedFactor="0.88" vaporized=""/>
    <personinfo id="pf_1.3" depart="135.00" type="ped" speedFactor="1.08" duration="235.70" waitingTime="5.30" timeLoss="28.44" traveltime="235.70">
        <walk depart="135.00" departPos="25.00" arrival="370.70" arrivalPos="3.44" duration="235.70" routeLength="311.67" timeLoss="28.44" maxSpeed="1.50" waitingTime="5.30"/>
    </personinfo>
    <personinfo id="pf_1.2" depart="90.00" type="ped" speedFactor="1.01" duration="281.80" waitingTime="34.90" timeLoss="59.70" traveltime="281.80">
        <walk depart="90.00" departPos="25.00" arrival="371.80" arrivalPos="3.44" duration="281.80" routeLength="311.67" timeLoss="59.70" maxSpeed="1.40" waitingTime="34.90"/>
    </personinfo>
    <tripinfo id="A3_1.5" depart="257.10" departLane="-793339796#2_2" departPos="5.10" departPosLat="0.00" departSpeed="23.93" departDelay="1.70" arrival="372.30" arrivalLane="-140483224#1_1" arrivalPos="64.04" arrivalPosLat="-0.00" arrivalSpeed="23.91" duration="115.20" routeLength="1080.94" waitingTime="45.60" waitingCount="3" stopTime="0.00" timeLoss="68.27" rerouteNo="1" devices="tripinfo_A3_1.5 routing_A3_1.5" vType="car" speedFactor="0.86" vaporized=""/>
    <personinfo id="pf_4.6" depart="270.00" type="ped" speedFactor="0.97" duration="122.00" waitingTime="0.00" timeLoss="12.18" traveltime="122.00">
        <walk depart="270.00" departPos="25.00" arrival="329.30" arrivalPos="29.11" duration="59.30" routeLength="72.15" timeLoss="5.89" maxSpeed="1.35" waitingTime="0.00"/>
        <walk depart="329.30" departPos="29.11" arrival="392.00" arrivalPos="29.05" duration="62.70" routeLength="76.20" timeLoss="6.29" maxSpeed="1.35" waitingTime="0.00"/>
    </personinfo>
    <tripinfo id="A2_1.4" depart="319.50" departLane="-793339796#2_1" departPos="5.10" departPosLat="0.00" departSpeed="25.36" departDelay="6.60" arrival="397.50" arrivalLane="-440471861#0_1" arrivalPos="31.52" arrivalPosLat="-0.00" arrivalSpeed="28.14" duration="78.00" routeLength="1081.27" waitingTime="17.80" waitingCount="1" stopTime="0.00" timeLoss="39.63" rerouteNo="1" devices="tripinfo_A2_1.4 routing_A2_1.4" vType="car" speedFactor="1.01" vaporized=""/>
    <personinfo id="pf_3.1" depart="45.00" type="ped" speedFactor="1.08" duration="358.40" waitingTime="10.40" timeLoss="44.99" traveltime="358.40">
        <walk depart="45.00" departPos="25.00" arrival="154.00" arrivalPos="19.11" duration="109.00" routeLength="132.56" timeLoss="20.44" maxSpeed="1.50" waitingTime="10.40"/>
        <walk depart="154.00" departPos="19.11" arrival="403.40" arrivalPos="22.72" duration="249.40" routeLength="336.55" timeLoss="24.55" maxSpeed="1.50" waitingTime="0.00"/>
    </personinfo>
    <personinfo id="pf_2.8" depart="360.00" type="ped" speedFactor="1.01" duration="47.40" waitingTime="23.10" timeLoss="25.44" traveltime="47.40">
        <walk depart="360.00" departPos="15.09" arrival="407.40" arrivalPos="3.44" duration="47.40" routeLength="30.72" timeLoss="25.44" maxSpeed="1.40" waitingTime="23.10"/>
    </personinfo>
    <tripinfo id="A1_1.2" depart="319.20" departLane="-793339796#2_1" departPos="7.20" departPosLat="0.00" departSpeed="29.37" departDelay="10.00" arrival="408.50" arrivalLane="-145894807#0_1" arrivalPos="260.95" arrivalPosLat="0.00" arrivalSpeed="8.80" duration="89.30" routeLength="1054.62" waitingTime="0.00" waitingCount="0" stopTime="0.00" timeLoss="4.62" rerouteNo="1" devices="tripinfo_A1_1.2 routing_A1_1.2" vType="truck" speedFactor="1.06" vaporized=""/>
    <tripinfo id="C2_1.1" depart="322.20" departLane="440471861#0_2" departPos="5.10" departPosLat="0.00" departSpeed="28.15" departDelay="0.00" arrival="415.90" arrivalLane="-145894807#0_1" arrivalPos="260.95" arrivalPosLat="0.00" arrivalSpeed="8.41" duration="93.70" routeLength="1082.06" waitingTime="1.90" waitingCount="1" stopTime="0.00" timeLoss="9.48" rerouteNo="1" devices="tripinfo_C2_1.1 routing_C2_1.1" vType="car" speedFactor="1.01" vaporized=""/>
    <tripinfo id="D1_1.5" depart="315.20" departLane="140483224#1_1" departPos="5.10" departPosLat="0.00" departSpeed="31.67" departDelay="0.00" arrival="422.90" arrivalLane="-793339796#2_2" arrivalPos="82.50" arrivalPosLat="0.00" arrivalSpeed="31.56" duration="107.70" routeLength="1648.38" waitingTime="25.90" waitingCount="2" stopTime="0.00" timeLoss="53.58" rerouteNo="1" devices="tripinfo_D1_1.5 routing_D1_1.5" vType="car" speedFactor="1.14" vaporized=""/>