<?xml version="1.0" encoding="UTF-8"?>

<!-- generated on 2025-11-18 10:04:50 by Eclipse SUMO sumo Version 1.24.0
<sumoConfiguration xmlns:xsi="http://www.w3.org/2001/XMLSchema-instance" xsi:noNamespaceSchemaLocation="http://sumo.dlr.de/xsd/sumoConfiguration.xsd">

    <input>
        <net-file value="Olivarez_traci\network/map.net.xml"/>
        <route-files value="Olivarez_traci\demand\flows_normal_traffic.rou.xml"/>
        <additional-files value="Olivarez_traci\additionals/map.poly.xml,Olivarez_traci\ additionals/detectors.add.xml"/>
    </input>

    <output>
        <tripinfo-output value="Olivarez_traci\output_A2C\SP_A2C_Normal_trips.xml"/>
        <statistic-output value="Olivarez_traci\output_A2C\SP_A2C_Normal_stats.xml"/>
    </output>

    <time>
        <begin value="0"/>
    </time>

    <processing>
        <collision.action value="none"/>
        <collision.check-junctions value="false"/>
        <collision.mingap-factor value="0"/>
    </processing>

    <report>
        <no-warnings value="true"/>
    </report>

    <traci_server>
        <remote-port value="60358"/>
    </traci_server>

</sumoConfiguration>
-->

<tripinfos xmlns:xsi="http://www.w3.org/2001/XMLSchema-instance" xsi:noNamespaceSchemaLocation="http://sumo.dlr.de/xsd/tripinfo_file.xsd">
    <personinfo id="pf_2.0" depart="0.00" type="ped" speedFactor="1.06" duration="49.00" waitingTime="26.00" timeLoss="28.49" traveltime="49.00">
        <walk depart="0.00" departPos="15.72" arrival="49.00" arrivalPos="4.00" duration="49.00" routeLength="30.33" timeLoss="28.49" maxSpeed="1.48" waitingTime="26.00"/>
    </personinfo>
    <personinfo id="pf_2.1" depart="36.00" type="ped" speedFactor="0.96" duration="25.00" waitingTime="0.00" timeLoss="2.17" traveltime="25.00">
        <walk depart="36.00" departPos="15.72" arrival="61.00" arrivalPos="4.00" duration="25.00" routeLength="30.33" timeLoss="2.17" maxSpeed="1.33" waitingTime="0.00"/>
    </personinfo>
    <tripinfo id="D2_1.0" depart="0.00" departLane="140483224#1_1" departPos="5.10" departSpeed="27.72" departDelay="0.00" arrival="95.00" arrivalLane="-145894807#0_1" arrivalPos="260.97" arrivalSpeed="7.02" duration="95.00" routeLength="1109.85" waitingTime="0.00" waitingCount="0" stopTime="0.00" timeLoss="6.94" rerouteNo="1" devices="tripinfo_D2_1.0 routing_D2_1.0" vType="car" speedFactor="1.00" vaporized=""/>
    <personinfo id="pf_2.2" depart="72.00" type="ped" speedFactor="0.97" duration="49.00" waitingTime="23.00" timeLoss="26.44" traveltime="49.00">
        <walk depart="72.00" departPos="15.72" arrival="121.00" arrivalPos="4.00" duration="49.00" routeLength="30.33" timeLoss="26.44" maxSpeed="1.34" waitingTime="23.00"/>
    </personinfo>
    <personinfo id="pf_2.3" depart="108.00" type="ped" speedFactor="0.95" duration="26.00" waitingTime="0.00" timeLoss="3.07" traveltime="26.00">
        <walk depart="108.00" departPos="15.72" arrival="134.00" arrivalPos="4.00" duration="26.00" routeLength="30.33" timeLoss="3.07" maxSpeed="1.32" waitingTime="0.00"/>
    </personinfo>
    <tripinfo id="C3_1.0" depart="69.00" departLane="440471861#0_1" departPos="2.30" departSpeed="28.79" departDelay="0.00" arrival="163.00" arrivalLane="-140483224#1_1" arrivalPos="64.17" arrivalSpeed="27.71" duration="94.00" routeLength="1056.73" waitingTime="43.00" waitingCount="2" stopTime="0.00" timeLoss="55.65" rerouteNo="1" devices="tripinfo_C3_1.0 routing_C3_1.0" vType="motorcycle" speedFactor="1.04" vaporized=""/>
    <tripinfo id="D3_1.0" depart="11.00" departLane="140483224#1_2" departPos="5.10" departSpeed="23.90" departDelay="0.00" arrival="169.00" arrivalLane="-440471861#0_2" arrivalPos="31.49" arrivalSpeed="23.06" duration="158.00" routeLength="1069.09" waitingTime="96.00" waitingCount="2" stopTime="0.00" timeLoss="111.21" rerouteNo="1" devices="tripinfo_D3_1.0 routing_D3_1.0" vType="car" speedFactor="0.86" vaporized=""/>
    <tripinfo id="D3_1.1" depart="25.00" departLane="140483224#1_2" departPos="5.10" departSpeed="27.59" departDelay="0.00" arrival="171.00" arrivalLane="-440471861#0_2" arrivalPos="31.49" arrivalSpeed="26.86" duration="146.00" routeLength="1069.09" waitingTime="86.00" waitingCount="2" stopTime="0.00" timeLoss="104.62" rerouteNo="1" devices="tripinfo_D3_1.1 routing_D3_1.1" vType="car" speedFactor="0.99" vaporized=""/>
    <tripinfo id="D3_1.2" depart="98.00" departLane="140483224#1_2" departPos="5.10" departSpeed="30.46" departDelay="0.00" arrival="172.00" arrivalLane="-440471861#0_2" arrivalPos="31.49" arrivalSpeed="29.03" duration="74.00" routeLength="1069.09" waitingTime="23.00" waitingCount="1" stopTime="0.00" timeLoss="37.13" rerouteNo="1" devices="tripinfo_D3_1.2 routing_D3_1.2" vType="car" speedFactor="1.10" vaporized=""/>
    <personinfo id="pf_2.4" depart="144.00" type="ped" speedFactor="0.89" duration="48.00" waitingTime="20.00" timeLoss="23.57" traveltime="48.00">
        <walk depart="144.00" departPos="15.72" arrival="192.00" arrivalPos="4.00" duration="48.00" routeLength="30.33" timeLoss="23.57" maxSpeed="1.24" waitingTime="20.00"/>
    </personinfo>
    <tripinfo id="D3_1.3" depart="145.00" departLane="140483224#1_2" departPos="8.10" departSpeed="27.78" departDelay="0.00" arrival="194.00" arrivalLane="-440471861#0_2" arrivalPos="31.49" arrivalSpeed="27.25" duration="49.00" routeLength="1066.09" waitingTime="0.00" waitingCount="0" stopTime="0.00" timeLoss="8.97" rerouteNo="1" devices="tripinfo_D3_1.3 routing_D3_1.3" vType="jeep" speedFactor="1.00" vaporized=""/>
    <tripinfo id="D3_1.4" depart="153.00" departLane="140483224#1_2" departPos="5.10" departSpeed="29.12" departDelay="0.00" arrival="198.00" arrivalLane="-440471861#0_2" arrivalPos="31.49" arrivalSpeed="28.69" duration="45.00" routeLength="1069.09" waitingTime="0.00" waitingCount="0" stopTime="0.00" timeLoss="5.89" rerouteNo="1" devices="tripinfo_D3_1.4 routing_D3_1.4" vType="car" speedFactor="1.05" vaporized=""/>
    <tripinfo id="A2_1.0" depart="30.00" departLane="-793339796#2_1" departPos="2.30" departSpeed="30.91" departDelay="0.00" arrival="199.00" arrivalLane="-440471861#0_1" arrivalPos="31.49" arrivalSpeed="28.48" duration="169.00" routeLength="1084.69" waitingTime="118.00" waitingCount="2" stopTime="0.00" timeLoss="133.36" rerouteNo="1" devices="tripinfo_A2_1.0 routing_A2_1.0" vType="motorcycle" speedFactor="1.11" vaporized=""/>
    <tripinfo id="C1_1.0" depart="42.00" departLane="440471861#0_1" departPos="5.10" departSpeed="38.00" departDelay="0.00" arrival="199.00" arrivalLane="-793339796#2_2" arrivalPos="83.13" arrivalSpeed="36.30" duration="157.00" routeLength="1654.03" waitingTime="74.00" waitingCount="3" stopTime="0.00" timeLoss="111.96" rerouteNo="1" devices="tripinfo_C1_1.0 routing_C1_1.0" vType="car" speedFactor="1.37" vaporized=""/>
    <tripinfo id="A2_1.1" depart="69.00" departLane="-793339796#2_1" departPos="2.30" departSpeed="31.28" departDelay="0.00" arrival="199.00" arrivalLane="-440471861#0_2" arrivalPos="31.49" arrivalSpeed="29.40" duration="130.00" routeLength="1084.69" waitingTime="83.00" waitingCount="1" stopTime="0.00" timeLoss="95.33" rerouteNo="1" devices="tripinfo_A2_1.1 routing_A2_1.1" vType="motorcycle" speedFactor="1.13" vaporized=""/>
    <tripinfo id="A2_1.3" depart="103.00" departLane="-793339796#2_1" departPos="2.30" departSpeed="29.09" departDelay="0.00" arrival="201.00" arrivalLane="-440471861#0_1" arrivalPos="31.49" arrivalSpeed="26.48" duration="98.00" routeLength="1084.69" waitingTime="45.00" waitingCount="2" stopTime="0.00" timeLoss="59.90" rerouteNo="1" devices="tripinfo_A2_1.3 routing_A2_1.3" vType="motorcycle" speedFactor="1.05" vaporized=""/>
    <personinfo id="pf_2.5" depart="180.00" type="ped" speedFactor="1.07" duration="23.00" waitingTime="0.00" timeLoss="2.64" traveltime="23.00">
        <walk depart="180.00" departPos="15.72" arrival="203.00" arrivalPos="4.00" duration="23.00" routeLength="30.33" timeLoss="2.64" maxSpeed="1.49" waitingTime="0.00"/>
    </personinfo>
    <tripinfo id="A2_1.2" depart="89.00" departLane="-793339796#2_1" departPos="5.10" departSpeed="27.95" departDelay="0.00" arrival="203.00" arrivalLane="-440471861#0_2" arrivalPos="31.49" arrivalSpeed="27.12" duration="114.00" routeLength="1081.89" waitingTime="56.00" waitingCount="2" stopTime="0.00" timeLoss="74.37" rerouteNo="1" devices="tripinfo_A2_1.2 routing_A2_1.2" vType="car" speedFactor="1.01" vaporized=""/>
    <tripinfo id="C1_1.2" depart="77.00" departLane="440471861#0_1" departPos="5.10" departSpeed="24.05" departDelay="0.00" arrival="204.00" arrivalLane="-793339796#2_2" arrivalPos="83.13" arrivalSpeed="22.77" duration="127.00" routeLength="1654.03" waitingTime="25.00" waitingCount="2" stopTime="0.00" timeLoss="56.91" rerouteNo="1" devices="tripinfo_C1_1.2 routing_C1_1.2" vType="car" speedFactor="0.87" vaporized=""/>
    <tripinfo id="C1_1.1" depart="66.00" departLane="440471861#0_1" departPos="7.20" departSpeed="28.76" departDelay="0.00" arrival="211.00" arrivalLane="-793339796#2_2" arrivalPos="83.13" arrivalSpeed="26.33" duration="145.00" routeLength="1651.93" waitingTime="37.00" waitingCount="2" stopTime="0.00" timeLoss="86.43" rerouteNo="1" devices="tripinfo_C1_1.1 routing_C1_1.1" vType="truck" speedFactor="1.04" vaporized=""/>
    <tripinfo id="D1_1.1" depart="30.00" departLane="140483224#1_1" departPos="5.10" departSpeed="26.89" departDelay="0.00" arrival="213.00" arrivalLane="-793339796#2_2" arrivalPos="83.13" arrivalSpeed="26.66" duration="183.00" routeLength="1648.45" waitingTime="77.00" waitingCount="2" stopTime="0.00" timeLoss="118.97" rerouteNo="1" devices="tripinfo_D1_1.1 routing_D1_1.1" vType="car" speedFactor="0.97" vaporized=""/>
    <tripinfo id="C1_1.3" depart="81.00" departLane="440471861#0_1" departPos="7.20" departSpeed="27.33" departDelay="0.00" arrival="220.00" arrivalLane="-793339796#2_2" arrivalPos="83.13" arrivalSpeed="25.07" duration="139.00" routeLength="1651.93" waitingTime="22.00" waitingCount="2" stopTime="0.00" timeLoss="76.70" rerouteNo="1" devices="tripinfo_C1_1.3 routing_C1_1.3" vType="truck" speedFactor="0.98" vaporized=""/>
    <tripinfo id="D1_1.0" depart="12.00" departLane="140483224#1_1" departPos="12.10" departSpeed="27.78" departDelay="0.00" arrival="224.00" arrivalLane="-793339796#2_2" arrivalPos="83.13" arrivalSpeed="23.97" duration="212.00" routeLength="1641.45" waitingTime="92.00" waitingCount="2" stopTime="0.00" timeLoss="151.03" rerouteNo="1" devices="tripinfo_D1_1.0 routing_D1_1.0" vType="bus" speedFactor="1.00" vaporized=""/>
    <tripinfo id="D1_1.2" depart="76.00" departLane="140483224#1_1" departPos="5.10" departSpeed="28.72" departDelay="0.00" arrival="226.00" arrivalLane="-793339796#2_2" arrivalPos="83.13" arrivalSpeed="26.91" duration="150.00" routeLength="1648.45" waitingTime="47.00" waitingCount="1" stopTime="0.00" timeLoss="90.13" rerouteNo="1" devices="tripinfo_D1_1.2 routing_D1_1.2" vType="car" speedFactor="1.03" vaporized=""/>
    <tripinfo id="D2_1.1" depart="66.00" departLane="140483224#1_1" departPos="5.10" departSpeed="26.59" departDelay="0.00" arrival="228.00" arrivalLane="-145894807#0_1" arrivalPos="260.97" arrivalSpeed="7.15" duration="162.00" routeLength="1109.85" waitingTime="53.00" waitingCount="1" stopTime="0.00" timeLoss="69.94" rerouteNo="1" devices="tripinfo_D2_1.1 routing_D2_1.1" vType="car" speedFactor="0.96" vaporized=""/>
    <tripinfo id="A3_1.1" depart="152.00" departLane="-793339796#2_2" departPos="5.10" departSpeed="27.62" departDelay="0.00" arrival="237.00" arrivalLane="-140483224#1_1" arrivalPos="64.17" arrivalSpeed="26.68" duration="85.00" routeLength="1081.71" waitingTime="22.00" waitingCount="2" stopTime="0.00" timeLoss="44.16" rerouteNo="1" devices="tripinfo_A3_1.1 routing_A3_1.1" vType="car" speedFactor="0.99" vaporized=""/>
    <tripinfo id="A3_1.0" depart="141.00" departLane="-793339796#2_2" departPos="8.10" departSpeed="27.78" departDelay="0.00" arrival="242.00" arrivalLane="-140483224#1_1" arrivalPos="64.17" arrivalSpeed="27.33" duration="101.00" routeLength="1078.71" waitingTime="31.00" waitingCount="2" stopTime="0.00" timeLoss="60.18" rerouteNo="1" devices="tripinfo_A3_1.0 routing_A3_1.0" vType="jeep" speedFactor="1.00" vaporized=""/>
    <personinfo id="pf_2.6" depart="216.00" type="ped" speedFactor="1.01" duration="45.00" waitingTime="19.00" timeLoss="23.46" traveltime="45.00">
        <walk depart="216.00" departPos="15.72" arrival="261.00" arrivalPos="4.00" duration="45.00" routeLength="30.33" timeLoss="23.46" maxSpeed="1.41" waitingTime="19.00"/>
    </personinfo>
    <tripinfo id="A1_1.0" depart="186.00" departLane="-793339796#2_1" departPos="5.10" departSpeed="32.43" departDelay="6.00" arrival="272.00" arrivalLane="-145894807#0_1" arrivalPos="260.97" arrivalSpeed="8.86" duration="86.00" routeLength="1057.45" waitingTime="0.00" waitingCount="0" stopTime="0.00" timeLoss="9.13" rerouteNo="1" devices="tripinfo_A1_1.0 routing_A1_1.0" vType="car" speedFactor="1.17" vaporized=""/>
    <personinfo id="pf_2.7" depart="252.00" type="ped" speedFactor="1.03" duration="23.00" waitingTime="0.00" timeLoss="1.89" traveltime="23.00">
        <walk depart="252.00" departPos="15.72" arrival="275.00" arrivalPos="4.00" duration="23.00" routeLength="30.33" timeLoss="1.89" maxSpeed="1.44" waitingTime="0.00"/>
    </personinfo>
    <tripinfo id="B1_1.0" depart="118.00" departLane="-361257727#0_1" departPos="5.10" departSpeed="7.20" departDelay="0.00" arrival="299.00" arrivalLane="-793339796#2_2" arrivalPos="83.13" arrivalSpeed="23.07" duration="181.00" routeLength="1915.62" waitingTime="0.00" waitingCount="0" stopTime="0.00" timeLoss="25.24" rerouteNo="1" devices="tripinfo_B1_1.0 routing_B1_1.0" vType="car" speedFactor="0.86" vaporized=""/>
    <tripinfo id="C3_1.2" depart="228.00" departLane="440471861#0_1" departPos="2.30" departSpeed="21.47" departDelay="0.00" arrival="306.00" arrivalLane="-140483224#1_1" arrivalPos="64.17" arrivalSpeed="20.92" duration="78.00" routeLength="1056.73" waitingTime="16.00" waitingCount="1" stopTime="0.00" timeLoss="26.54" rerouteNo="1" devices="tripinfo_C3_1.2 routing_C3_1.2" vType="motorcycle" speedFactor="0.77" vaporized=""/>
    <tripinfo id="C3_1.1" depart="86.00" departLane="440471861#0_1" departPos="8.10" departSpeed="27.78" departDelay="0.00" arrival="312.00" arrivalLane="-140483224#1_1" arrivalPos="64.17" arrivalSpeed="27.48" duration="226.00" routeLength="1050.93" waitingTime="153.00" waitingCount="2" stopTime="0.00" timeLoss="187.25" rerouteNo="1" devices="tripinfo_C3_1.1 routing_C3_1.1" vType="jeep" speedFactor="1.00" vaporized=""/>
    <personinfo id="pf_2.8" depart="288.00" type="ped" speedFactor="1.06" duration="31.00" waitingTime="6.00" timeLoss="10.49" traveltime="31.00">
        <walk depart="288.00" departPos="15.72" arrival="319.00" arrivalPos="4.00" duration="31.00" routeLength="30.33" timeLoss="10.49" maxSpeed="1.48" waitingTime="6.00"/>
    </personinfo>
    <tripinfo id="D3_1.5" depart="272.00" departLane="140483224#1_2" departPos="5.10" departSpeed="24.70" departDelay="0.00" arrival="323.00" arrivalLane="-440471861#0_2" arrivalPos="31.49" arrivalSpeed="24.29" duration="51.00" routeLength="1069.09" waitingTime="0.00" waitingCount="0" stopTime="0.00" timeLoss="5.76" rerouteNo="1" devices="tripinfo_D3_1.5 routing_D3_1.5" vType="car" speedFactor="0.89" vaporized=""/>
    <tripinfo id="A2_1.5" depart="271.00" departLane="-793339796#2_1" departPos="2.30" departSpeed="28.23" departDelay="0.00" arrival="326.00" arrivalLane="-440471861#0_1" arrivalPos="31.49" arrivalSpeed="25.27" duration="55.00" routeLength="1084.69" waitingTime="8.00" waitingCount="1" stopTime="0.00" timeLoss="16.35" rerouteNo="1" devices="tripinfo_A2_1.5 routing_A2_1.5" vType="motorcycle" speedFactor="1.02" vaporized=""/>
    <tripinfo id="A2_1.4" depart="164.00" departLane="-793339796#2_1" departPos="5.10" departSpeed="27.67" departDelay="0.00" arrival="330.00" arrivalLane="-440471861#0_1" arrivalPos="31.49" arrivalSpeed="26.55" duration="166.00" routeLength="1081.89" waitingTime="107.00" waitingCount="2" stopTime="0.00" timeLoss="126.39" rerouteNo="1" devices="tripinfo_A2_1.4 routing_A2_1.4" vType="car" speedFactor="1.00" vaporized=""/>
    <tripinfo id="D1_1.4" depart="244.00" departLane="140483224#1_1" departPos="2.30" departSpeed="28.22" departDelay="0.00" arrival="338.00" arrivalLane="-793339796#2_2" arrivalPos="83.13" arrivalSpeed="25.69" duration="94.00" routeLength="1651.25" waitingTime="13.00" waitingCount="1" stopTime="0.00" timeLoss="32.10" rerouteNo="1" devices="tripinfo_D1_1.4 routing_D1_1.4" vType="motorcycle" speedFactor="1.02" vaporized=""/>
    <tripinfo id="A1_1.1" depart="247.00" departLane="-793339796#2_1" departPos="8.10" departSpeed="27.78" departDelay="7.00" arrival="344.00" arrivalLane="-145894807#0_1" arrivalPos="260.97" arrivalSpeed="8.26" duration="97.00" routeLength="1054.45" waitingTime="0.00" waitingCount="0" stopTime="0.00" timeLoss="7.40" rerouteNo="1" devices="tripinfo_A1_1.1 routing_A1_1.1" vType="jeep" speedFactor="1.00" vaporized=""/>
    <tripinfo id="A1_1.2" depart="248.00" departLane="-793339796#2_1" departPos="5.10" departSpeed="26.17" departDelay="7.00" arrival="348.00" arrivalLane="-145894807#0_1" arrivalPos="260.97" arrivalSpeed="8.45" duration="100.00" routeLength="1057.45" waitingTime="0.00" waitingCount="0" stopTime="0.00" timeLoss="13.01" rerouteNo="1" devices="tripinfo_A1_1.2 routing_A1_1.2" vType="car" speedFactor="1.03" vaporized=""/>
    <personinfo id="pf_2.9" depart="324.00" type="ped" speedFactor="0.96" duration="25.00" waitingTime="0.00" timeLoss="2.24" traveltime="25.00">
        <walk depart="324.00" departPos="15.72" arrival="349.00" arrivalPos="4.00" duration="25.00" routeLength="30.33" timeLoss="2.24" maxSpeed="1.33" waitingTime="0.00"/>
    </personinfo>
    <tripinfo id="C1_1.4" depart="173.00" departLane="440471861#0_1" departPos="7.20" departSpeed="26.14" departDelay="0.00" arrival="350.00" arrivalLane="-793339796#2_2" arrivalPos="83.13" arrivalSpeed="25.77" duration="177.00" routeLength="1651.93" waitingTime="71.00" waitingCount="2" stopTime="0.00" timeLoss="112.32" rerouteNo="1" devices="tripinfo_C1_1.4 routing_C1_1.4" vType="truck" speedFactor="0.94" vaporized=""/>
    <tripinfo id="D1_1.3" depart="179.00" departLane="140483224#1_1" departPos="8.10" departSpeed="27.78" departDelay="0.00" arrival="354.00" arrivalLane="-793339796#2_2" arrivalPos="83.13" arrivalSpeed="23.93" duration="175.00" routeLength="1645.45" waitingTime="69.00" waitingCount="2" stopTime="0.00" timeLoss="113.73" rerouteNo="1" devices="tripinfo_D1_1.3 routing_D1_1.3" vType="jeep" speedFactor="1.00" vaporized=""/>
    <tripinfo id="D2_1.2" depart="251.00" departLane="140483224#1_1" departPos="7.20" departSpeed="28.00" departDelay="0.00" arrival="362.00" arrivalLane="-145894807#0_1" arrivalPos="260.97" arrivalSpeed="7.88" duration="111.00" routeLength="1107.75" waitingTime="8.00" waitingCount="1" stopTime="0.00" timeLoss="23.64" rerouteNo="1" devices="tripinfo_D2_1.2 routing_D2_1.2" vType="truck" speedFactor="1.01" vaporized=""/>
    <personinfo id="pf_1.3" depart="108.00" type="ped" speedFactor="1.08" duration="256.00" waitingTime="8.00" timeLoss="37.77" traveltime="256.00">
        <walk depart="108.00" departPos="25.00" arrival="364.00" arrivalPos="4.00" duration="256.00" routeLength="328.17" timeLoss="37.77" maxSpeed="1.50" waitingTime="8.00"/>
    </personinfo>
    <personinfo id="pf_1.0" depart="0.00" type="ped" speedFactor="1.06" duration="366.00" waitingTime="115.00" timeLoss="143.09" traveltime="366.00">
        <walk depart="0.00" departPos="25.00" arrival="366.00" arrivalPos="4.00" duration="366.00" routeLength="328.17" timeLoss="143.09" maxSpeed="1.47" waitingTime="115.00"/>
    </personinfo>
    <personinfo id="pf_1.2" depart="72.00" type="ped" speedFactor="1.01" duration="294.00" waitingTime="28.00" timeLoss="60.15" traveltime="294.00">
        <walk depart="72.00" departPos="25.00" arrival="366.00" arrivalPos="4.00" duration="294.00" routeLength="328.17" timeLoss="60.15" maxSpeed="1.40" waitingTime="28.00"/>
    </personinfo>
    <personinfo id="pf_1.1" depart="36.00" type="ped" speedFactor="0.94" duration="331.00" waitingTime="47.00" timeLoss="79.18" traveltime="331.00">
        <walk depart="36.00" departPos="25.00" arrival="367.00" arrivalPos="4.00" duration="331.00" routeLength="328.17" timeLoss="79.18" maxSpeed="1.30" waitingTime="47.00"/>
    </personinfo>
    <tripinfo id="B2_1.1" depart="203.00" departLane="-361257727#0_1" departPos="5.10" departSpeed="7.20" departDelay="0.00" arrival="373.00" arrivalLane="-440471861#0_2" arrivalPos="31.49" arrivalSpeed="23.20" duration="170.00" routeLength="1414.29" waitingTime="8.00" waitingCount="1" stopTime="0.00" timeLoss="32.00" rerouteNo="1" devices="tripinfo_B2_1.1 routing_B2_1.1" vType="car" speedFactor="0.86" vaporized=""/>
    <tripinfo id="B2_1.0" depart="139.00" departLane="-361257727#0_1" departPos="8.10" departSpeed="8.33" departDelay="0.00" arrival="374.00" arrivalLane="-440471861#0_1" arrivalPos="31.49" arrivalSpeed="21.68" duration="235.00" routeLength="1411.29" waitingTime="90.00" waitingCount="1" stopTime="0.00" timeLoss="116.38" rerouteNo="1" devices="tripinfo_B2_1.0 routing_B2_1.0" vType="jeep" speedFactor="1.00" vaporized=""/>
    <tripinfo id="A2_1.6" depart="293.00" departLane="-793339796#2_1" departPos="5.10" departSpeed="28.13" departDelay="0.00" arrival="376.00" arrivalLane="-440471861#0_1" arrivalPos="31.49" arrivalSpeed="27.73" duration="83.00" routeLength="1081.89" waitingTime="27.00" waitingCount="2" stopTime="0.00" timeLoss="44.34" rerouteNo="1" devices="tripinfo_A2_1.6 routing_A2_1.6" vType="car" speedFactor="1.01" vaporized=""/>
    <tripinfo id="A3_1.2" depart="299.00" departLane="-793339796#2_2" departPos="5.10" departSpeed="24.66" departDelay="0.00" arrival="396.00" arrivalLane="-140483224#1_1" arrivalPos="64.17" arrivalSpeed="24.56" duration="97.00" routeLength="1081.71" waitingTime="27.00" waitingCount="3" stopTime="0.00" timeLoss="51.26" rerouteNo="1" devices="tripinfo_A3_1.2 routing_A3_1.2" vType="car" speedFactor="0.89" vaporized=""/>
    <tripinfo id="A3_1.3" depart="310.00" departLane="-793339796#2_2" departPos="5.10" departSpeed="22.10" departDelay="0.00" arrival="398.00" arrivalLane="-140483224#1_1" arrivalPos="64.17" arrivalSpeed="21.05" duration="88.00" routeLength="1081.71" waitingTime="10.00" waitingCount="3" stopTime="0.00" timeLoss="36.07" rerouteNo="1" devices="tripinfo_A3_1.3 routing_A3_1.3" vType="car" speedFactor="0.80" vaporized=""/>
    <tripinfo id="B1_1.1" depart="221.00" departLane="-361257727#0_1" departPos="7.20" departSpeed="8.03" departDelay="0.00" arrival="400.00" arrivalLane="-793339796#2_2" arrivalPos="83.13" arrivalSpeed="24.28" duration="179.00" routeLength="1913.52" waitingTime="2.00" waitingCount="1" stopTime="0.00" timeLoss="40.45" rerouteNo="1" devices="tripinfo_B1_1.1 routing_B1_1.1" vType="truck" speedFactor="0.96" vaporized=""/>
    <personinfo id="pf_4.0" depart="0.00" type="ped" speedFactor="1.07" duration="417.00" waitingTime="304.00" timeLoss="321.61" traveltime="417.00">
        <walk depart="0.00" departPos="25.00" arrival="53.00" arrivalPos="27.07" duration="53.00" routeLength="69.89" timeLoss="5.98" maxSpeed="1.49" waitingTime="0.00"/>
        <walk depart="53.00" departPos="27.07" arrival="417.00" arrivalPos="27.01" duration="364.00" routeLength="71.90" timeLoss="315.63" maxSpeed="1.49" waitingTime="304.00"/>
    </personinfo>
    <tripinfo id="A3_1.4" depart="396.00" departLane="-793339796#2_2" departPos="5.10" departSpeed="28.82" departDelay="4.00" arrival="441.00" arrivalLane="-140483224#1_2" arrivalPos="64.17" arrivalSpeed="27.75" duration="45.00" routeLength="1081.71" waitingTime="0.00" waitingCount="0" stopTime="0.00" timeLoss="5.46" rerouteNo="1" devices="tripinfo_A3_1.4 routing_A3_1.4" vType="car" speedFactor="1.04" vaporized=""/>
    <tripinfo id="B1_1.2" depart="279.00" departLane="-361257727#0_1" departPos="8.10" departSpeed="8.33" departDelay="0.00" arrival="446.00" arrivalLane="-793339796#2_2" arrivalPos="83.13" arrivalSpeed="24.62" duration="167.00" routeLength="1912.62" waitingTime="0.00" waitingCount="0" stopTime="0.00" timeLoss="33.63" rerouteNo="1" devices="tripinfo_B1_1.2 routing_B1_1.2" vType="jeep" speedFactor="1.00" vaporized=""/>
    <tripinfo id="B3_1.0" depart="335.00" departLane="-361257727#0_1" departPos="5.10" departSpeed="9.65" departDelay="0.00" arrival="451.00" arrivalLane="-140483224#1_1" arrivalPos="64.17" arrivalSpeed="31.31" duration="116.00" routeLength="1427.09" waitingTime="0.00" waitingCount="0" stopTime="0.00" timeLoss="13.33" rerouteNo="1" devices="tripinfo_B3_1.0 routing_B3_1.0" vType="car" speedFactor="1.16" vaporized=""/>
    <personinfo id="pf_3.2" depart="72.00" type="ped" speedFactor="1.03" duration="380.00" waitingTime="13.00" timeLoss="49.48" traveltime="380.00">
        <walk depart="72.00" departPos="25.00" arrival="176.00" arrivalPos="18.88" duration="104.00" routeLength="135.02" timeLoss="10.08" maxSpeed="1.44" waitingTime="0.00"/>
        <walk depart="176.00" departPos="18.88" arrival="452.00" arrivalPos="22.75" duration="276.00" routeLength="340.11" timeLoss="39.40" maxSpeed="1.44" waitingTime="13.00"/>
    </personinfo>
    <personinfo id="pf_1.4" depart="144.00" type="ped" speedFactor="1.03" duration="312.00" waitingTime="55.00" timeLoss="82.67" traveltime="312.00">
        <walk depart="144.00" departPos="25.00" arrival="456.00" arrivalPos="4.00" duration="312.00" routeLength="328.17" timeLoss="82.67" maxSpeed="1.43" waitingTime="55.00"/>
    </personinfo>
    <personinfo id="pf_2.10" depart="360.00" type="ped" speedFactor="0.93" duration="98.00" waitingTime="71.00" timeLoss="74.46" traveltime="98.00">
        <walk depart="360.00" departPos="15.72" arrival="458.00" arrivalPos="4.00" duration="98.00" routeLength="30.33" timeLoss="74.46" maxSpeed="1.29" waitingTime="71.00"/>
    </personinfo>
    <personinfo id="pf_2.12" depart="432.00" type="ped" speedFactor="1.10" duration="27.00" waitingTime="0.00" timeLoss="7.12" traveltime="27.00">
        <walk depart="432.00" departPos="15.72" arrival="459.00" arrivalPos="4.00" duration="27.00" routeLength="30.33" timeLoss="7.12" maxSpeed="1.53" waitingTime="0.00"/>
    </personinfo>
    <personinfo id="pf_2.11" depart="396.00" type="ped" speedFactor="0.87" duration="64.00" waitingTime="35.00" timeLoss="38.78" traveltime="64.00">
        <walk depart="396.00" departPos="15.72" arrival="460.00" arrivalPos="4.00" duration="64.00" routeLength="30.33" timeLoss="38.78" maxSpeed="1.20" waitingTime="35.00"/>
    </personinfo>
    <personinfo id="pf_3.0" depart="0.00" type="ped" speedFactor="0.95" duration="472.00" waitingTime="71.00" timeLoss="110.92" traveltime="472.00">
        <walk depart="0.00" departPos="25.00" arrival="153.00" arrivalPos="18.88" duration="153.00" routeLength="135.02" timeLoss="50.39" maxSpeed="1.32" waitingTime="39.00"/>
        <walk depart="153.00" departPos="18.88" arrival="472.00" arrivalPos="22.75" duration="319.00" routeLength="340.11" timeLoss="60.53" maxSpeed="1.32" waitingTime="32.00"/>
    </personinfo>
    <tripinfo id="A2_1.7" depart="414.00" departLane="-793339796#2_1" departPos="2.30" departSpeed="27.55" departDelay="0.00" arrival="480.00" arrivalLane="-440471861#0_1" arrivalPos="31.49" arrivalSpeed="27.19" duration="66.00" routeLength="1084.69" waitingTime="15.00" waitingCount="1" stopTime="0.00" timeLoss="26.58" rerouteNo="1" devices="tripinfo_A2_1.7 routing_A2_1.7" vType="tricycle" speedFactor="0.99" vaporized=""/>
    <tripinfo id="B3_1.1" depart="337.00" departLane="-361257727#0_1" departPos="12.10" departSpeed="5.54" departDelay="0.00" arrival="481.00" arrivalLane="-140483224#1_1" arrivalPos="64.17" arrivalSpeed="27.46" duration="144.00" routeLength="1420.09" waitingTime="0.00" waitingCount="0" stopTime="0.00" timeLoss="25.55" rerouteNo="1" devices="tripinfo_B3_1.1 routing_B3_1.1" vType="bus" speedFactor="1.00" vaporized=""/>
    <personinfo id="pf_3.1" depart="36.00" type="ped" speedFactor="0.87" duration="453.00" waitingTime="18.00" timeLoss="62.00" traveltime="453.00">
        <walk depart="36.00" departPos="25.00" arrival="160.00" arrivalPos="18.88" duration="124.00" routeLength="135.02" timeLoss="12.89" maxSpeed="1.22" waitingTime="0.00"/>
        <walk depart="160.00" departPos="18.88" arrival="489.00" arrivalPos="22.75" duration="329.00" routeLength="340.11" timeLoss="49.11" maxSpeed="1.22" waitingTime="18.00"/>
    </personinfo>
    <personinfo id="pf_3.3" depart="108.00" type="ped" speedFactor="1.11" duration="382.00" waitingTime="8.00" timeLoss="73.42" traveltime="382.00">
        <walk depart="108.00" departPos="25.00" arrival="216.00" arrivalPos="18.88" duration="108.00" routeLength="135.02" timeLoss="20.31" maxSpeed="1.54" waitingTime="8.00"/>
        <walk depart="216.00" departPos="18.88" arrival="490.00" arrivalPos="22.75" duration="274.00" routeLength="340.11" timeLoss="53.11" maxSpeed="1.54" waitingTime="0.00"/>
    </personinfo>
    <personinfo id="pf_2.13" depart="468.00" type="ped" speedFactor="1.01" duration="24.00" waitingTime="0.00" timeLoss="2.35" traveltime="24.00">
        <walk depart="468.00" departPos="15.72" arrival="492.00" arrivalPos="4.00" duration="24.00" routeLength="30.33" timeLoss="2.35" maxSpeed="1.40" waitingTime="0.00"/>
    </personinfo>
    <personinfo id="pf_3.4" depart="144.00" type="ped" speedFactor="1.07" duration="361.00" waitingTime="3.00" timeLoss="40.51" traveltime="361.00">
        <walk depart="144.00" departPos="25.00" arrival="246.00" arrivalPos="18.88" duration="102.00" routeLength="135.02" timeLoss="10.93" maxSpeed="1.48" waitingTime="0.00"/>
        <walk depart="246.00" departPos="18.88" arrival="505.00" arrivalPos="22.75" duration="259.00" routeLength="340.11" timeLoss="29.59" maxSpeed="1.48" waitingTime="3.00"/>
    </personinfo>