<?xml version="1.0" encoding="UTF-8"?>

<!-- generated on 2025-12-03 22:24:04 by Eclipse SUMO sumo Version 1.24.0
<sumoConfiguration xmlns:xsi="http://www.w3.org/2001/XMLSchema-instance" xsi:noNamespaceSchemaLocation="http://sumo.dlr.de/xsd/sumoConfiguration.xsd">

    <input>
        <net-file value="Olivarez_traci\network/map1.net.xml"/>
        <route-files value="Olivarez_traci\demand\flows_traffic_jam.rou.xml"/>
        <additional-files value="Olivarez_traci\additionals/map.poly.xml,Olivarez_traci\ additionals/detectors.add.xml"/>
    </input>

    <output>
        <tripinfo-output value="Olivarez_traci\output_A2C\SP_A2C_Unified_Jam_trips.xml"/>
        <statistic-output value="Olivarez_traci\output_A2C\SP_A2C_Unified_Jam_stats.xml"/>
    </output>

    <time>
        <begin value="0"/>
        <end value="10800"/>
        <step-length value="0.1"/>
    </time>

    <processing>
        <lateral-resolution value="0.1"/>
        <collision.action value="none"/>
        <collision.check-junctions value="false"/>
        <collision.mingap-factor value="0"/>
    </processing>

    <report>
        <no-warnings value="true"/>
    </report>

    <traci_server>
        <remote-port value="59819"/>
    </traci_server>

    <gui_only>
        <delay value="0"/>
    </gui_only>

</sumoConfiguration>
-->

<tripinfos xmlns:xsi="http://www.w3.org/2001/XMLSchema-instance" xsi:noNamespaceSchemaLocation="http://sumo.dlr.de/xsd/tripinfo_file.xsd">
    <personinfo id="pf_2.0" depart="0.00" type="ped" speedFactor="0.83" duration="29.90" waitingTime="0.00" timeLoss="3.11" traveltime="29.90">
        <walk depart="0.00" departPos="15.09" arrival="29.90" arrivalPos="3.44" duration="29.90" routeLength="30.72" timeLoss="3.11" maxSpeed="1.15" waitingTime="0.00"/>
    </personinfo>
    <personinfo id="pf_2.1" depart="15.00" type="ped" speedFactor="0.87" duration="28.10" waitingTime="0.00" timeLoss="2.75" traveltime="28.10">
        <walk depart="15.00" departPos="15.09" arrival="43.10" arrivalPos="3.44" duration="28.10" routeLength="30.72" timeLoss="2.75" maxSpeed="1.21" waitingTime="0.00"/>
    </personinfo>
    <tripinfo id="A2_1.0" depart="3.00" departLane="-793339796#2_1" departPos="5.10" departPosLat="0.00" departSpeed="29.34" departDelay="0.00" arrival="62.20" arrivalLane="-440471861#0_1" arrivalPos="31.52" arrivalPosLat="0.00" arrivalSpeed="29.29" duration="59.20" routeLength="1081.27" waitingTime="11.80" waitingCount="1" stopTime="0.00" timeLoss="22.29" rerouteNo="1" devices="tripinfo_A2_1.0 routing_A2_1.0" vType="car" speedFactor="1.06" vaporized=""/>
    <tripinfo id="A2_1.2" depart="8.90" departLane="-793339796#2_2" departPos="5.10" departPosLat="0.00" departSpeed="27.37" departDelay="0.00" arrival="63.20" arrivalLane="-440471861#0_2" arrivalPos="31.52" arrivalPosLat="0.00" arrivalSpeed="27.37" duration="54.30" routeLength="1081.27" waitingTime="4.90" waitingCount="1" stopTime="0.00" timeLoss="14.73" rerouteNo="1" devices="tripinfo_A2_1.2 routing_A2_1.2" vType="car" speedFactor="0.99" vaporized=""/>
    <tripinfo id="A2_1.1" depart="6.90" departLane="-793339796#2_1" departPos="5.10" departPosLat="0.00" departSpeed="27.02" departDelay="0.00" arrival="64.70" arrivalLane="-440471861#0_1" arrivalPos="31.52" arrivalPosLat="-0.00" arrivalSpeed="26.97" duration="57.80" routeLength="1081.27" waitingTime="3.10" waitingCount="1" stopTime="0.00" timeLoss="17.74" rerouteNo="1" devices="tripinfo_A2_1.1 routing_A2_1.1" vType="car" speedFactor="0.97" vaporized=""/>
    <personinfo id="pf_2.3" depart="45.00" type="ped" speedFactor="0.95" duration="27.50" waitingTime="1.30" timeLoss="4.19" traveltime="27.50">
        <walk depart="45.00" departPos="15.09" arrival="72.50" arrivalPos="3.44" duration="27.50" routeLength="30.72" timeLoss="4.19" maxSpeed="1.32" waitingTime="1.30"/>
    </personinfo>
    <personinfo id="pf_2.2" depart="30.00" type="ped" speedFactor="0.92" duration="43.40" waitingTime="16.60" timeLoss="19.28" traveltime="43.40">
        <walk depart="30.00" departPos="15.09" arrival="73.40" arrivalPos="3.44" duration="43.40" routeLength="30.72" timeLoss="19.28" maxSpeed="1.27" waitingTime="16.60"/>
    </personinfo>
    <tripinfo id="A2_1.3" depart="16.40" departLane="-793339796#2_1" departPos="7.20" departPosLat="0.00" departSpeed="26.64" departDelay="0.00" arrival="80.20" arrivalLane="-440471861#0_1" arrivalPos="31.52" arrivalPosLat="-0.00" arrivalSpeed="26.62" duration="63.80" routeLength="1079.17" waitingTime="0.00" waitingCount="0" stopTime="0.00" timeLoss="23.26" rerouteNo="1" devices="tripinfo_A2_1.3 routing_A2_1.3" vType="truck" speedFactor="0.96" vaporized=""/>
    <tripinfo id="C3_1.0" depart="6.90" departLane="440471861#0_1" departPos="2.30" departPosLat="0.00" departSpeed="21.33" departDelay="0.00" arrival="87.70" arrivalLane="-140483224#1_1" arrivalPos="64.04" arrivalPosLat="-0.00" arrivalSpeed="29.29" duration="80.80" routeLength="1055.58" waitingTime="35.40" waitingCount="1" stopTime="0.00" timeLoss="43.50" rerouteNo="1" devices="tripinfo_C3_1.0 routing_C3_1.0" vType="motorcycle" speedFactor="1.06" vaporized=""/>
    <personinfo id="pf_2.4" depart="60.00" type="ped" speedFactor="1.13" duration="30.10" waitingTime="8.20" timeLoss="10.56" traveltime="30.10">
        <walk depart="60.00" departPos="15.09" arrival="90.10" arrivalPos="3.44" duration="30.10" routeLength="30.72" timeLoss="10.56" maxSpeed="1.57" waitingTime="8.20"/>
    </personinfo>
    <tripinfo id="D1_1.0" depart="1.20" departLane="140483224#1_1" departPos="5.10" departPosLat="0.00" departSpeed="24.93" departDelay="0.00" arrival="93.10" arrivalLane="-793339796#2_2" arrivalPos="82.50" arrivalPosLat="0.00" arrivalSpeed="24.84" duration="91.90" routeLength="1648.38" waitingTime="4.80" waitingCount="1" stopTime="0.00" timeLoss="23.15" rerouteNo="1" devices="tripinfo_D1_1.0 routing_D1_1.0" vType="car" speedFactor="0.90" vaporized=""/>
    <tripinfo id="A3_1.0" depart="15.20" departLane="-793339796#2_2" departPos="8.10" departPosLat="0.00" departSpeed="27.78" departDelay="0.00" arrival="98.40" arrivalLane="-140483224#1_1" arrivalPos="64.04" arrivalPosLat="-0.00" arrivalSpeed="27.73" duration="83.20" routeLength="1077.94" waitingTime="9.50" waitingCount="2" stopTime="0.00" timeLoss="42.83" rerouteNo="1" devices="tripinfo_A3_1.0 routing_A3_1.0" vType="jeep" speedFactor="1.00" vaporized=""/>
    <personinfo id="pf_2.5" depart="75.00" type="ped" speedFactor="0.93" duration="26.30" waitingTime="0.00" timeLoss="2.55" traveltime="26.30">
        <walk depart="75.00" departPos="15.09" arrival="101.30" arrivalPos="3.44" duration="26.30" routeLength="30.72" timeLoss="2.55" maxSpeed="1.29" waitingTime="0.00"/>
    </personinfo>
    <tripinfo id="C3_1.1" depart="8.60" departLane="440471861#0_1" departPos="12.10" departPosLat="0.00" departSpeed="16.81" departDelay="0.00" arrival="104.90" arrivalLane="-140483224#1_2" arrivalPos="64.04" arrivalPosLat="0.00" arrivalSpeed="27.76" duration="96.30" routeLength="1045.78" waitingTime="28.10" waitingCount="1" stopTime="0.00" timeLoss="57.22" rerouteNo="1" devices="tripinfo_C3_1.1 routing_C3_1.1" vType="bus" speedFactor="1.00" vaporized=""/>
    <tripinfo id="D3_1.0" depart="15.30" departLane="140483224#1_1" departPos="2.30" departPosLat="0.00" departSpeed="26.42" departDelay="0.00" arrival="104.90" arrivalLane="-440471861#0_2" arrivalPos="31.52" arrivalPosLat="0.00" arrivalSpeed="26.37" duration="89.60" routeLength="1070.77" waitingTime="33.50" waitingCount="2" stopTime="0.00" timeLoss="47.45" rerouteNo="1" devices="tripinfo_D3_1.0 routing_D3_1.0" vType="tricycle" speedFactor="0.95" vaporized=""/>
    <personinfo id="pf_4.0" depart="0.00" type="ped" speedFactor="1.11" duration="107.00" waitingTime="0.00" timeLoss="10.80" traveltime="107.00">
        <walk depart="0.00" departPos="25.00" arrival="52.00" arrivalPos="29.11" duration="52.00" routeLength="72.15" timeLoss="5.21" maxSpeed="1.54" waitingTime="0.00"/>
        <walk depart="52.00" departPos="29.11" arrival="107.00" arrivalPos="29.05" duration="55.00" routeLength="76.20" timeLoss="5.59" maxSpeed="1.54" waitingTime="0.00"/>
    </personinfo>
    <tripinfo id="A2_1.4" depart="46.80" departLane="-793339796#2_1" departPos="5.10" departPosLat="0.00" departSpeed="28.29" departDelay="5.40" arrival="117.40" arrivalLane="-440471861#0_1" arrivalPos="31.52" arrivalPosLat="0.00" arrivalSpeed="28.23" duration="70.60" routeLength="1081.27" waitingTime="19.90" waitingCount="1" stopTime="0.00" timeLoss="32.28" rerouteNo="1" devices="tripinfo_A2_1.4 routing_A2_1.4" vType="car" speedFactor="1.02" vaporized=""/>
    <tripinfo id="A2_1.6" depart="48.10" departLane="-793339796#2_1" departPos="5.10" departPosLat="0.00" departSpeed="27.03" departDelay="0.00" arrival="119.00" arrivalLane="-440471861#0_1" arrivalPos="31.52" arrivalPosLat="0.00" arrivalSpeed="26.91" duration="70.90" routeLength="1081.27" waitingTime="15.10" waitingCount="1" stopTime="0.00" timeLoss="30.89" rerouteNo="1" devices="tripinfo_A2_1.6 routing_A2_1.6" vType="car" speedFactor="0.97" vaporized=""/>
    <tripinfo id="A2_1.8" depart="68.80" departLane="-793339796#2_1" departPos="5.10" departPosLat="0.00" departSpeed="27.81" departDelay="14.70" arrival="120.60" arrivalLane="-440471861#0_2" arrivalPos="31.52" arrivalPosLat="0.00" arrivalSpeed="27.81" duration="51.80" routeLength="1081.27" waitingTime="0.00" waitingCount="0" stopTime="0.00" timeLoss="12.88" rerouteNo="1" devices="tripinfo_A2_1.8 routing_A2_1.8" vType="car" speedFactor="1.00" vaporized=""/>
    <tripinfo id="A2_1.7" depart="48.40" departLane="-793339796#2_2" departPos="5.10" departPosLat="0.00" departSpeed="21.17" departDelay="0.00" arrival="124.50" arrivalLane="-440471861#0_1" arrivalPos="31.52" arrivalPosLat="-0.00" arrivalSpeed="21.07" duration="76.10" routeLength="1081.27" waitingTime="16.80" waitingCount="1" stopTime="0.00" timeLoss="24.93" rerouteNo="1" devices="tripinfo_A2_1.7 routing_A2_1.7" vType="car" speedFactor="0.76" vaporized=""/>
    <personinfo id="pf_2.6" depart="90.00" type="ped" speedFactor="1.18" duration="35.00" waitingTime="14.10" timeLoss="16.23" traveltime="35.00">
        <walk depart="90.00" departPos="15.09" arrival="125.00" arrivalPos="3.44" duration="35.00" routeLength="30.72" timeLoss="16.23" maxSpeed="1.64" waitingTime="14.10"/>
    </personinfo>
    <personinfo id="pf_2.7" depart="105.00" type="ped" speedFactor="1.15" duration="21.30" waitingTime="0.00" timeLoss="2.14" traveltime="21.30">
        <walk depart="105.00" departPos="15.09" arrival="126.30" arrivalPos="3.44" duration="21.30" routeLength="30.72" timeLoss="2.14" maxSpeed="1.60" waitingTime="0.00"/>
    </personinfo>
    <tripinfo id="A2_1.5" depart="46.80" departLane="-793339796#2_2" departPos="5.10" departPosLat="0.00" departSpeed="24.66" departDelay="0.20" arrival="129.90" arrivalLane="-440471861#0_1" arrivalPos="31.52" arrivalPosLat="-0.00" arrivalSpeed="24.53" duration="83.10" routeLength="1081.27" waitingTime="26.00" waitingCount="1" stopTime="0.00" timeLoss="39.17" rerouteNo="1" devices="tripinfo_A2_1.5 routing_A2_1.5" vType="car" speedFactor="0.89" vaporized=""/>
    <personinfo id="pf_4.1" depart="15.00" type="ped" speedFactor="1.02" duration="116.60" waitingTime="0.00" timeLoss="11.41" traveltime="116.60">
        <walk depart="15.00" departPos="25.00" arrival="71.70" arrivalPos="29.11" duration="56.70" routeLength="72.15" timeLoss="5.54" maxSpeed="1.41" waitingTime="0.00"/>
        <walk depart="71.70" departPos="29.11" arrival="131.60" arrivalPos="29.05" duration="59.90" routeLength="76.20" timeLoss="5.87" maxSpeed="1.41" waitingTime="0.00"/>
    </personinfo>
    <tripinfo id="B2_1.0" depart="13.90" departLane="-361257727#0_1" departPos="2.30" departPosLat="0.00" departSpeed="8.68" departDelay="0.00" arrival="133.20" arrivalLane="-440471861#0_1" arrivalPos="31.52" arrivalPosLat="-0.00" arrivalSpeed="28.85" duration="119.30" routeLength="1400.48" waitingTime="1.40" waitingCount="1" stopTime="0.00" timeLoss="6.65" rerouteNo="1" devices="tripinfo_B2_1.0 routing_B2_1.0" vType="motorcycle" speedFactor="1.04" vaporized=""/>
    <tripinfo id="D2_1.0" depart="25.10" departLane="140483224#1_1" departPos="2.30" departPosLat="0.00" departSpeed="28.06" departDelay="0.00" arrival="146.30" arrivalLane="-145894807#0_1" arrivalPos="260.95" arrivalPosLat="0.00" arrivalSpeed="8.33" duration="121.20" routeLength="1095.56" waitingTime="24.00" waitingCount="2" stopTime="0.00" timeLoss="36.60" rerouteNo="1" devices="tripinfo_D2_1.0 routing_D2_1.0" vType="tricycle" speedFactor="1.01" vaporized=""/>
    <tripinfo id="C1_1.0" depart="6.60" departLane="440471861#0_1" departPos="5.10" departPosLat="0.00" departSpeed="27.96" departDelay="0.00" arrival="146.40" arrivalLane="-793339796#2_2" arrivalPos="82.50" arrivalPosLat="0.00" arrivalSpeed="27.88" duration="139.80" routeLength="1653.99" waitingTime="54.40" waitingCount="2" stopTime="0.00" timeLoss="79.53" rerouteNo="1" devices="tripinfo_C1_1.0 routing_C1_1.0" vType="car" speedFactor="1.01" vaporized=""/>
    <personinfo id="pf_2.8" depart="120.00" type="ped" speedFactor="1.01" duration="27.70" waitingTime="3.50" timeLoss="5.69" traveltime="27.70">
        <walk depart="120.00" departPos="15.09" arrival="147.70" arrivalPos="3.44" duration="27.70" routeLength="30.72" timeLoss="5.69" maxSpeed="1.40" waitingTime="3.50"/>
    </personinfo>
    <tripinfo id="D1_1.1" depart="47.90" departLane="140483224#1_1" departPos="5.10" departPosLat="0.00" departSpeed="31.78" departDelay="0.00" arrival="148.90" arrivalLane="-793339796#2_2" arrivalPos="82.50" arrivalPosLat="0.00" arrivalSpeed="31.71" duration="101.00" routeLength="1648.38" waitingTime="4.30" waitingCount="1" stopTime="0.00" timeLoss="47.08" rerouteNo="1" devices="tripinfo_D1_1.1 routing_D1_1.1" vType="car" speedFactor="1.14" vaporized=""/>
    <tripinfo id="D2_1.1" depart="39.10" departLane="140483224#1_1" departPos="8.10" departPosLat="0.00" departSpeed="27.78" departDelay="0.00" arrival="151.00" arrivalLane="-145894807#0_1" arrivalPos="260.95" arrivalPosLat="0.00" arrivalSpeed="8.32" duration="111.90" routeLength="1089.76" waitingTime="9.10" waitingCount="2" stopTime="0.00" timeLoss="26.74" rerouteNo="1" devices="tripinfo_D2_1.1 routing_D2_1.1" vType="jeep" speedFactor="1.00" vaporized=""/>
    <tripinfo id="C1_1.1" depart="30.30" departLane="440471861#0_1" departPos="5.10" departPosLat="0.00" departSpeed="26.25" departDelay="0.00" arrival="153.70" arrivalLane="-793339796#2_2" arrivalPos="82.50" arrivalPosLat="0.00" arrivalSpeed="26.24" duration="123.40" routeLength="1653.99" waitingTime="21.60" waitingCount="2" stopTime="0.00" timeLoss="59.27" rerouteNo="1" devices="tripinfo_C1_1.1 routing_C1_1.1" vType="car" speedFactor="0.94" vaporized=""/>
    <personinfo id="pf_4.2" depart="30.00" type="ped" speedFactor="1.01" duration="124.10" waitingTime="6.70" timeLoss="18.42" traveltime="124.10">
        <walk depart="30.00" departPos="25.00" arrival="93.70" arrivalPos="29.11" duration="63.70" routeLength="72.15" timeLoss="12.30" maxSpeed="1.40" waitingTime="6.70"/>
        <walk depart="93.70" departPos="29.11" arrival="154.10" arrivalPos="29.05" duration="60.40" routeLength="76.20" timeLoss="6.12" maxSpeed="1.40" waitingTime="0.00"/>
    </personinfo>
    <tripinfo id="C3_1.3" depart="47.20" departLane="440471861#0_1" departPos="2.30" departPosLat="0.00" departSpeed="29.34" departDelay="0.00" arrival="154.30" arrivalLane="-140483224#1_1" arrivalPos="64.04" arrivalPosLat="0.00" arrivalSpeed="29.34" duration="107.10" routeLength="1055.58" waitingTime="45.10" waitingCount="1" stopTime="0.00" timeLoss="69.76" rerouteNo="1" devices="tripinfo_C3_1.3 routing_C3_1.3" vType="motorcycle" speedFactor="1.06" vaporized=""/>
    <tripinfo id="A3_1.1" depart="31.00" departLane="-793339796#2_1" departPos="12.10" departPosLat="0.00" departSpeed="27.78" departDelay="0.00" arrival="154.40" arrivalLane="-140483224#1_2" arrivalPos="64.04" arrivalPosLat="0.00" arrivalSpeed="27.76" duration="123.40" routeLength="1073.94" waitingTime="55.50" waitingCount="2" stopTime="0.00" timeLoss="83.23" rerouteNo="1" devices="tripinfo_A3_1.1 routing_A3_1.1" vType="bus" speedFactor="1.00" vaporized=""/>
    <tripinfo id="D2_1.2" depart="67.30" departLane="140483224#1_1" departPos="5.10" departPosLat="0.00" departSpeed="27.46" departDelay="0.00" arrival="156.40" arrivalLane="-145894807#0_1" arrivalPos="260.95" arrivalPosLat="0.00" arrivalSpeed="8.19" duration="89.10" routeLength="1092.76" waitingTime="0.00" waitingCount="0" stopTime="0.00" timeLoss="2.76" rerouteNo="1" devices="tripinfo_D2_1.2 routing_D2_1.2" vType="car" speedFactor="0.99" vaporized=""/>
    <tripinfo id="D3_1.1" depart="94.70" departLane="140483224#1_2" departPos="5.10" departPosLat="0.00" departSpeed="19.66" departDelay="0.00" arrival="159.80" arrivalLane="-440471861#0_2" arrivalPos="31.52" arrivalPosLat="0.00" arrivalSpeed="29.85" duration="65.10" routeLength="1067.97" waitingTime="6.90" waitingCount="2" stopTime="0.00" timeLoss="27.93" rerouteNo="1" devices="tripinfo_D3_1.1 routing_D3_1.1" vType="car" speedFactor="1.08" vaporized=""/>
    <tripinfo id="C3_1.2" depart="22.80" departLane="440471861#0_1" departPos="7.20" departPosLat="0.00" departSpeed="27.71" departDelay="0.00" arrival="163.70" arrivalLane="-140483224#1_2" arrivalPos="64.04" arrivalPosLat="0.00" arrivalSpeed="27.66" duration="140.90" routeLength="1050.68" waitingTime="65.90" waitingCount="3" stopTime="0.00" timeLoss="101.55" rerouteNo="1" devices="tripinfo_C3_1.2 routing_C3_1.2" vType="truck" speedFactor="1.00" vaporized=""/>
    <tripinfo id="D3_1.2" depart="121.80" departLane="140483224#1_1" departPos="7.20" departPosLat="0.00" departSpeed="27.42" departDelay="0.00" arrival="169.20" arrivalLane="-440471861#0_2" arrivalPos="31.52" arrivalPosLat="0.00" arrivalSpeed="27.37" duration="47.40" routeLength="1065.87" waitingTime="0.00" waitingCount="0" stopTime="0.00" timeLoss="6.91" rerouteNo="1" devices="tripinfo_D3_1.2 routing_D3_1.2" vType="truck" speedFactor="0.99" vaporized=""/>
    <personinfo id="pf_4.4" depart="60.00" type="ped" speedFactor="1.05" duration="114.50" waitingTime="1.10" timeLoss="12.43" traveltime="114.50">
        <walk depart="60.00" departPos="25.00" arrival="115.20" arrivalPos="29.11" duration="55.20" routeLength="72.15" timeLoss="5.56" maxSpeed="1.45" waitingTime="0.00"/>
        <walk depart="115.20" departPos="29.11" arrival="174.50" arrivalPos="29.05" duration="59.30" routeLength="76.20" timeLoss="6.87" maxSpeed="1.45" waitingTime="1.10"/>
    </personinfo>
    <personinfo id="pf_2.9" depart="135.00" type="ped" speedFactor="1.17" duration="46.10" waitingTime="25.00" timeLoss="27.22" traveltime="46.10">
        <walk depart="135.00" departPos="15.09" arrival="181.10" arrivalPos="3.44" duration="46.10" routeLength="30.72" timeLoss="27.22" maxSpeed="1.63" waitingTime="25.00"/>
    </personinfo>
    <personinfo id="pf_4.5" depart="75.00" type="ped" speedFactor="1.12" duration="106.40" waitingTime="0.50" timeLoss="11.41" traveltime="106.40">
        <walk depart="75.00" departPos="25.00" arrival="127.00" arrivalPos="29.11" duration="52.00" routeLength="72.15" timeLoss="5.80" maxSpeed="1.56" waitingTime="0.50"/>
        <walk depart="127.00" departPos="29.11" arrival="181.40" arrivalPos="29.05" duration="54.40" routeLength="76.20" timeLoss="5.61" maxSpeed="1.56" waitingTime="0.00"/>
    </personinfo>
    <personinfo id="pf_2.10" depart="150.00" type="ped" speedFactor="0.99" duration="33.70" waitingTime="8.80" timeLoss="11.46" traveltime="33.70">
        <walk depart="150.00" departPos="15.09" arrival="183.70" arrivalPos="3.44" duration="33.70" routeLength="30.72" timeLoss="11.46" maxSpeed="1.38" waitingTime="8.80"/>
    </personinfo>
    <tripinfo id="A2_1.9" depart="137.30" departLane="-793339796#2_2" departPos="5.10" departPosLat="0.00" departSpeed="27.04" departDelay="11.50" arrival="185.00" arrivalLane="-440471861#0_1" arrivalPos="31.52" arrivalPosLat="-0.00" arrivalSpeed="27.00" duration="47.70" routeLength="1081.27" waitingTime="0.00" waitingCount="0" stopTime="0.00" timeLoss="7.61" rerouteNo="1" devices="tripinfo_A2_1.9 routing_A2_1.9" vType="car" speedFactor="0.97" vaporized=""/>
    <tripinfo id="A1_1.0" depart="92.00" departLane="-793339796#2_1" departPos="8.10" departPosLat="0.00" departSpeed="27.78" departDelay="8.00" arrival="186.00" arrivalLane="-145894807#0_1" arrivalPos="260.95" arrivalPosLat="0.00" arrivalSpeed="8.27" duration="94.00" routeLength="1053.72" waitingTime="0.00" waitingCount="0" stopTime="0.00" timeLoss="4.58" rerouteNo="1" devices="tripinfo_A1_1.0 routing_A1_1.0" vType="jeep" speedFactor="1.00" vaporized=""/>
    <tripinfo id="B2_1.1" depart="62.00" departLane="-361257727#0_1" departPos="5.10" departPosLat="0.00" departSpeed="8.32" departDelay="0.00" arrival="193.70" arrivalLane="-440471861#0_1" arrivalPos="31.52" arrivalPosLat="-0.00" arrivalSpeed="27.70" duration="131.70" routeLength="1397.68" waitingTime="4.70" waitingCount="1" stopTime="0.00" timeLoss="14.44" rerouteNo="1" devices="tripinfo_B2_1.1 routing_B2_1.1" vType="car" speedFactor="1.00" vaporized=""/>
    <tripinfo id="C2_1.0" depart="40.30" departLane="440471861#0_2" departPos="5.10" departPosLat="0.00" departSpeed="26.65" departDelay="0.00" arrival="197.50" arrivalLane="-145894807#0_1" arrivalPos="260.95" arrivalPosLat="0.00" arrivalSpeed="7.90" duration="157.20" routeLength="1082.06" waitingTime="46.50" waitingCount="1" stopTime="0.00" timeLoss="68.28" rerouteNo="1" devices="tripinfo_C2_1.0 routing_C2_1.0" vType="car" speedFactor="0.96" vaporized=""/>
    <tripinfo id="D2_1.3" depart="93.70" departLane="140483224#1_2" departPos="2.30" departPosLat="0.00" departSpeed="28.96" departDelay="0.00" arrival="203.10" arrivalLane="-145894807#0_1" arrivalPos="260.95" arrivalPosLat="-0.00" arrivalSpeed="8.68" duration="109.40" routeLength="1095.56" waitingTime="11.90" waitingCount="2" stopTime="0.00" timeLoss="27.40" rerouteNo="1" devices="tripinfo_D2_1.3 routing_D2_1.3" vType="tricycle" speedFactor="1.04" vaporized=""/>
    <personinfo id="pf_2.11" depart="165.00" type="ped" speedFactor="1.02" duration="38.70" waitingTime="14.60" timeLoss="17.01" traveltime="38.70">
        <walk depart="165.00" departPos="15.09" arrival="203.70" arrivalPos="3.44" duration="38.70" routeLength="30.72" timeLoss="17.01" maxSpeed="1.42" waitingTime="14.60"/>
    </personinfo>
    <tripinfo id="D1_1.2" depart="74.50" departLane="140483224#1_1" departPos="2.30" departPosLat="0.00" departSpeed="26.46" departDelay="0.00" arrival="205.00" arrivalLane="-793339796#2_2" arrivalPos="82.50" arrivalPosLat="0.00" arrivalSpeed="26.44" duration="130.50" routeLength="1651.18" waitingTime="37.60" waitingCount="3" stopTime="0.00" timeLoss="65.62" rerouteNo="1" devices="tripinfo_D1_1.2 routing_D1_1.2" vType="tricycle" speedFactor="0.95" vaporized=""/>
    <personinfo id="pf_2.12" depart="180.00" type="ped" speedFactor="0.97" duration="25.20" waitingTime="0.00" timeLoss="2.47" traveltime="25.20">
        <walk depart="180.00" departPos="15.09" arrival="205.20" arrivalPos="3.44" duration="25.20" routeLength="30.72" timeLoss="2.47" maxSpeed="1.35" waitingTime="0.00"/>
    </personinfo>
    <tripinfo id="C1_1.2" depart="35.30" departLane="440471861#0_1" departPos="2.30" departPosLat="0.00" departSpeed="31.62" departDelay="0.00" arrival="209.70" arrivalLane="-793339796#2_2" arrivalPos="82.50" arrivalPosLat="0.00" arrivalSpeed="31.55" duration="174.40" routeLength="1656.79" waitingTime="71.90" waitingCount="3" stopTime="0.00" timeLoss="121.03" rerouteNo="1" devices="tripinfo_C1_1.2 routing_C1_1.2" vType="tricycle" speedFactor="1.14" vaporized=""/>
    <tripinfo id="A3_1.2" depart="68.80" departLane="-793339796#2_2" departPos="7.20" departPosLat="0.00" departSpeed="24.90" departDelay="7.80" arrival="210.10" arrivalLane="-140483224#1_1" arrivalPos="64.04" arrivalPosLat="-0.00" arrivalSpeed="24.85" duration="141.30" routeLength="1078.84" waitingTime="60.90" waitingCount="3" stopTime="0.00" timeLoss="96.24" rerouteNo="1" devices="tripinfo_A3_1.2 routing_A3_1.2" vType="truck" speedFactor="0.90" vaporized=""/>
    <tripinfo id="C3_1.4" depart="51.90" departLane="440471861#0_1" departPos="5.10" departPosLat="0.00" departSpeed="29.67" departDelay="0.00" arrival="212.00" arrivalLane="-140483224#1_1" arrivalPos="64.04" arrivalPosLat="-0.00" arrivalSpeed="29.59" duration="160.10" routeLength="1052.78" waitingTime="94.60" waitingCount="3" stopTime="0.00" timeLoss="123.37" rerouteNo="1" devices="tripinfo_C3_1.4 routing_C3_1.4" vType="car" speedFactor="1.07" vaporized=""/>
    <tripinfo id="D1_1.3" depart="92.30" departLane="140483224#1_1" departPos="5.10" departPosLat="0.00" departSpeed="27.97" departDelay="0.00" arrival="213.40" arrivalLane="-793339796#2_2" arrivalPos="82.50" arrivalPosLat="0.00" arrivalSpeed="27.85" duration="121.10" routeLength="1648.38" waitingTime="16.60" waitingCount="3" stopTime="0.00" timeLoss="59.73" rerouteNo="1" devices="tripinfo_D1_1.3 routing_D1_1.3" vType="car" speedFactor="1.01" vaporized=""/>
    <personinfo id="pf_4.6" depart="90.00" type="ped" speedFactor="1.01" duration="126.40" waitingTime="8.20" timeLoss="20.18" traveltime="126.40">
        <walk depart="90.00" departPos="25.00" arrival="153.30" arrivalPos="29.11" duration="63.30" routeLength="72.15" timeLoss="11.64" maxSpeed="1.40" waitingTime="5.50"/>
        <walk depart="153.30" departPos="29.11" arrival="216.40" arrivalPos="29.05" duration="63.10" routeLength="76.20" timeLoss="8.54" maxSpeed="1.40" waitingTime="2.70"/>
    </personinfo>
    <tripinfo id="D1_1.4" depart="112.20" departLane="140483224#1_1" departPos="5.10" departPosLat="0.00" departSpeed="27.94" departDelay="0.00" arrival="216.50" arrivalLane="-793339796#2_2" arrivalPos="82.50" arrivalPosLat="0.00" arrivalSpeed="27.93" duration="104.30" routeLength="1648.38" waitingTime="0.00" waitingCount="0" stopTime="0.00" timeLoss="42.97" rerouteNo="1" devices="tripinfo_D1_1.4 routing_D1_1.4" vType="car" speedFactor="1.01" vaporized=""/>
    <personinfo id="pf_4.3" depart="45.00" type="ped" speedFactor="0.69" duration="171.90" waitingTime="0.00" timeLoss="17.19" traveltime="171.90">
        <walk depart="45.00" departPos="25.00" arrival="128.70" arrivalPos="29.11" duration="83.70" routeLength="72.15" timeLoss="8.46" maxSpeed="0.96" waitingTime="0.00"/>
        <walk depart="128.70" departPos="29.11" arrival="216.90" arrivalPos="29.05" duration="88.20" routeLength="76.20" timeLoss="8.73" maxSpeed="0.96" waitingTime="0.00"/>
    </personinfo>
    <tripinfo id="C3_1.5" depart="54.60" departLane="440471861#0_1" departPos="7.20" departPosLat="0.00" departSpeed="28.29" departDelay="0.00" arrival="219.40" arrivalLane="-140483224#1_2" arrivalPos="64.04" arrivalPosLat="0.00" arrivalSpeed="28.27" duration="164.80" routeLength="1050.68" waitingTime="87.00" waitingCount="3" stopTime="0.00" timeLoss="126.34" rerouteNo="1" devices="tripinfo_C3_1.5 routing_C3_1.5" vType="truck" speedFactor="1.02" vaporized=""/>
    <tripinfo id="D1_1.5" depart="117.10" departLane="140483224#1_1" departPos="5.10" departPosLat="0.00" departSpeed="27.34" departDelay="0.00" arrival="219.70" arrivalLane="-793339796#2_2" arrivalPos="82.50" arrivalPosLat="0.00" arrivalSpeed="27.33" duration="102.60" routeLength="1648.38" waitingTime="0.00" waitingCount="0" stopTime="0.00" timeLoss="39.87" rerouteNo="1" devices="tripinfo_D1_1.5 routing_D1_1.5" vType="car" speedFactor="0.98" vaporized=""/>
    <tripinfo id="D3_1.3" depart="128.50" departLane="140483224#1_1" departPos="7.20" departPosLat="0.00" departSpeed="26.19" departDelay="0.00" arrival="221.80" arrivalLane="-440471861#0_2" arrivalPos="31.52" arrivalPosLat="0.00" arrivalSpeed="26.15" duration="93.30" routeLength="1065.87" waitingTime="28.20" waitingCount="2" stopTime="0.00" timeLoss="51.01" rerouteNo="1" devices="tripinfo_D3_1.3 routing_D3_1.3" vType="truck" speedFactor="0.94" vaporized=""/>
    <personinfo id="pf_4.7" depart="105.00" type="ped" speedFactor="1.01" duration="117.70" waitingTime="0.00" timeLoss="11.67" traveltime="117.70">
        <walk depart="105.00" departPos="25.00" arrival="162.40" arrivalPos="29.11" duration="57.40" routeLength="72.15" timeLoss="5.83" maxSpeed="1.40" waitingTime="0.00"/>
        <walk depart="162.40" departPos="29.11" arrival="222.70" arrivalPos="29.05" duration="60.30" routeLength="76.20" timeLoss="5.84" maxSpeed="1.40" waitingTime="0.00"/>
    </personinfo>
    <tripinfo id="D3_1.4" depart="179.60" departLane="140483224#1_2" departPos="5.10" departPosLat="0.00" departSpeed="27.23" departDelay="0.00" arrival="224.40" arrivalLane="-440471861#0_2" arrivalPos="31.52" arrivalPosLat="0.00" arrivalSpeed="27.23" duration="44.80" routeLength="1067.97" waitingTime="0.00" waitingCount="0" stopTime="0.00" timeLoss="3.96" rerouteNo="1" devices="tripinfo_D3_1.4 routing_D3_1.4" vType="car" speedFactor="0.98" vaporized=""/>
    <tripinfo id="D1_1.6" depart="124.30" departLane="140483224#1_1" departPos="8.10" departPosLat="0.00" departSpeed="27.78" departDelay="0.00" arrival="228.60" arrivalLane="-793339796#2_2" arrivalPos="82.50" arrivalPosLat="0.00" arrivalSpeed="24.47" duration="104.30" routeLength="1645.38" waitingTime="0.00" waitingCount="0" stopTime="0.00" timeLoss="42.78" rerouteNo="1" devices="tripinfo_D1_1.6 routing_D1_1.6" vType="jeep" speedFactor="1.00" vaporized=""/>
    <personinfo id="pf_4.8" depart="120.00" type="ped" speedFactor="1.09" duration="114.20" waitingTime="5.50" timeLoss="16.51" traveltime="114.20">
        <walk depart="120.00" departPos="25.00" arrival="173.00" arrivalPos="29.11" duration="53.00" routeLength="72.15" timeLoss="5.49" maxSpeed="1.52" waitingTime="0.20"/>
        <walk depart="173.00" departPos="29.11" arrival="234.20" arrivalPos="29.05" duration="61.20" routeLength="76.20" timeLoss="11.02" maxSpeed="1.52" waitingTime="5.30"/>
    </personinfo>