<?xml version="1.0" encoding="UTF-8"?>

<!-- generated on 2026-02-16 22:56:20 by Eclipse SUMO sumo Version 1.24.0
<sumoConfiguration xmlns:xsi="http://www.w3.org/2001/XMLSchema-instance" xsi:noNamespaceSchemaLocation="http://sumo.dlr.de/xsd/sumoConfiguration.xsd">

    <input>
        <net-file value="Olivarez_traci\network/map1.net.xml"/>
        <route-files value="Olivarez_traci\demand\flows_normal_traffic.rou.xml"/>
        <additional-files value="Olivarez_traci\additionals/map.poly.xml,Olivarez_traci\ additionals/detectors.add.xml"/>
    </input>

    <output>
        <tripinfo-output value="Olivarez_traci\output_A2C\SP_A2C_Unified_Normal_trips.xml"/>
        <statistic-output value="Olivarez_traci\output_A2C\SP_A2C_Unified_Normal_stats.xml"/>
    </output>

    <time>
        <begin value="0"/>
        <end value="10800"/>
        <step-length value="0.1"/>
    </time>

    <processing>
        <lateral-resolution value="0.1"/>
        <collision.action value="none"/>
        <collision.check-junctions value="false"/>
        <collision.mingap-factor value="0"/>
    </processing>

    <report>
        <no-warnings value="true"/>
    </report>

    <traci_server>
        <remote-port value="58033"/>
    </traci_server>

    <gui_only>
        <delay value="0"/>
    </gui_only>

</sumoConfiguration>
-->

<tripinfos xmlns:xsi="http://www.w3.org/2001/XMLSchema-instance" xsi:noNamespaceSchemaLocation="http://sumo.dlr.de/xsd/tripinfo_file.xsd">
    <personinfo id="pf_2.0" depart="0.00" type="ped" speedFactor="1.03" duration="23.90" waitingTime="0.00" timeLoss="2.52" traveltime="23.90">
        <walk depart="0.00" departPos="15.09" arrival="23.90" arrivalPos="3.44" duration="23.90" routeLength="30.72" timeLoss="2.52" maxSpeed="1.44" waitingTime="0.00"/>
    </personinfo>
    <tripinfo id="D3_1.0" depart="15.30" departLane="140483224#1_2" departPos="5.10" departPosLat="0.00" departSpeed="27.91" departDelay="0.00" arrival="59.80" arrivalLane="-440471861#0_2" arrivalPos="31.52" arrivalPosLat="0.00" arrivalSpeed="27.88" duration="44.50" routeLength="1067.97" waitingTime="0.00" waitingCount="0" stopTime="0.00" timeLoss="4.68" rerouteNo="1" devices="tripinfo_D3_1.0 routing_D3_1.0" vType="car" speedFactor="1.00" vaporized=""/>
    <tripinfo id="A2_1.0" depart="8.90" departLane="-793339796#2_1" departPos="2.30" departPosLat="0.00" departSpeed="27.90" departDelay="0.00" arrival="67.70" arrivalLane="-440471861#0_1" arrivalPos="31.52" arrivalPosLat="0.00" arrivalSpeed="27.64" duration="58.80" routeLength="1084.07" waitingTime="12.10" waitingCount="2" stopTime="0.00" timeLoss="19.88" rerouteNo="1" devices="tripinfo_A2_1.0 routing_A2_1.0" vType="motorcycle" speedFactor="1.00" vaporized=""/>
    <tripinfo id="A2_1.1" depart="16.40" departLane="-793339796#2_1" departPos="5.10" departPosLat="0.00" departSpeed="26.58" departDelay="0.00" arrival="72.30" arrivalLane="-440471861#0_2" arrivalPos="31.52" arrivalPosLat="0.00" arrivalSpeed="26.49" duration="55.90" routeLength="1081.27" waitingTime="4.40" waitingCount="1" stopTime="0.00" timeLoss="15.20" rerouteNo="1" devices="tripinfo_A2_1.1 routing_A2_1.1" vType="car" speedFactor="0.96" vaporized=""/>
    <personinfo id="pf_2.1" depart="45.00" type="ped" speedFactor="1.00" duration="46.80" waitingTime="22.40" timeLoss="24.64" traveltime="46.80">
        <walk depart="45.00" departPos="15.09" arrival="91.80" arrivalPos="3.44" duration="46.80" routeLength="30.72" timeLoss="24.64" maxSpeed="1.39" waitingTime="22.40"/>
    </personinfo>
    <tripinfo id="D1_1.0" depart="1.20" departLane="140483224#1_1" departPos="5.10" departPosLat="0.00" departSpeed="23.74" departDelay="0.00" arrival="94.30" arrivalLane="-793339796#2_2" arrivalPos="82.50" arrivalPosLat="0.00" arrivalSpeed="23.69" duration="93.10" routeLength="1648.38" waitingTime="3.70" waitingCount="1" stopTime="0.00" timeLoss="20.82" rerouteNo="1" devices="tripinfo_D1_1.0 routing_D1_1.0" vType="car" speedFactor="0.85" vaporized=""/>
    <tripinfo id="C1_1.0" depart="35.30" departLane="440471861#0_1" departPos="5.10" departPosLat="0.00" departSpeed="28.06" departDelay="0.00" arrival="108.90" arrivalLane="-793339796#2_2" arrivalPos="82.50" arrivalPosLat="0.00" arrivalSpeed="27.98" duration="73.60" routeLength="1653.99" waitingTime="0.00" waitingCount="0" stopTime="0.00" timeLoss="13.54" rerouteNo="1" devices="tripinfo_C1_1.0 routing_C1_1.0" vType="car" speedFactor="1.01" vaporized=""/>
    <tripinfo id="C3_1.0" depart="22.80" departLane="440471861#0_1" departPos="8.10" departPosLat="0.00" departSpeed="27.78" departDelay="0.00" arrival="110.20" arrivalLane="-140483224#1_1" arrivalPos="64.04" arrivalPosLat="-0.00" arrivalSpeed="27.75" duration="87.40" routeLength="1049.78" waitingTime="21.70" waitingCount="2" stopTime="0.00" timeLoss="48.24" rerouteNo="1" devices="tripinfo_C3_1.0 routing_C3_1.0" vType="jeep" speedFactor="1.00" vaporized=""/>
    <personinfo id="pf_4.0" depart="0.00" type="ped" speedFactor="0.95" duration="124.40" waitingTime="0.00" timeLoss="12.10" traveltime="124.40">
        <walk depart="0.00" departPos="25.00" arrival="60.60" arrivalPos="29.11" duration="60.60" routeLength="72.15" timeLoss="5.98" maxSpeed="1.32" waitingTime="0.00"/>
        <walk depart="60.60" departPos="29.11" arrival="124.40" arrivalPos="29.05" duration="63.80" routeLength="76.20" timeLoss="6.12" maxSpeed="1.32" waitingTime="0.00"/>
    </personinfo>
    <tripinfo id="C2_1.0" depart="40.30" departLane="440471861#0_2" departPos="2.30" departPosLat="0.00" departSpeed="27.09" departDelay="0.00" arrival="128.80" arrivalLane="-145894807#0_1" arrivalPos="260.95" arrivalPosLat="0.00" arrivalSpeed="8.02" duration="88.50" routeLength="1084.86" waitingTime="0.00" waitingCount="0" stopTime="0.00" timeLoss="0.99" rerouteNo="1" devices="tripinfo_C2_1.0 routing_C2_1.0" vType="tricycle" speedFactor="0.98" vaporized=""/>
    <personinfo id="pf_2.2" depart="90.00" type="ped" speedFactor="1.02" duration="52.70" waitingTime="28.40" timeLoss="30.95" traveltime="52.70">
        <walk depart="90.00" departPos="15.09" arrival="142.70" arrivalPos="3.44" duration="52.70" routeLength="30.72" timeLoss="30.95" maxSpeed="1.41" waitingTime="28.40"/>
    </personinfo>
    <tripinfo id="C3_1.1" depart="87.10" departLane="440471861#0_1" departPos="12.10" departPosLat="0.00" departSpeed="27.78" departDelay="0.00" arrival="158.80" arrivalLane="-140483224#1_2" arrivalPos="64.04" arrivalPosLat="0.00" arrivalSpeed="27.73" duration="71.70" routeLength="1045.78" waitingTime="3.20" waitingCount="1" stopTime="0.00" timeLoss="32.67" rerouteNo="1" devices="tripinfo_C3_1.1 routing_C3_1.1" vType="bus" speedFactor="1.00" vaporized=""/>
    <personinfo id="pf_4.1" depart="45.00" type="ped" speedFactor="1.01" duration="117.20" waitingTime="0.00" timeLoss="11.75" traveltime="117.20">
        <walk depart="45.00" departPos="25.00" arrival="101.90" arrivalPos="29.11" duration="56.90" routeLength="72.15" timeLoss="5.61" maxSpeed="1.41" waitingTime="0.00"/>
        <walk depart="101.90" departPos="29.11" arrival="162.20" arrivalPos="29.05" duration="60.30" routeLength="76.20" timeLoss="6.14" maxSpeed="1.41" waitingTime="0.00"/>
    </personinfo>
    <tripinfo id="D1_1.1" depart="74.50" departLane="140483224#1_1" departPos="8.10" departPosLat="0.00" departSpeed="27.78" departDelay="0.00" arrival="163.70" arrivalLane="-793339796#2_2" arrivalPos="82.50" arrivalPosLat="0.00" arrivalSpeed="24.36" duration="89.20" routeLength="1645.38" waitingTime="0.00" waitingCount="0" stopTime="0.00" timeLoss="27.71" rerouteNo="1" devices="tripinfo_D1_1.1 routing_D1_1.1" vType="jeep" speedFactor="1.00" vaporized=""/>
    <tripinfo id="C1_1.2" depart="82.10" departLane="440471861#0_1" departPos="8.10" departPosLat="0.00" departSpeed="27.78" departDelay="0.00" arrival="177.50" arrivalLane="-793339796#2_2" arrivalPos="82.50" arrivalPosLat="0.00" arrivalSpeed="24.38" duration="95.40" routeLength="1650.99" waitingTime="1.50" waitingCount="1" stopTime="0.00" timeLoss="34.90" rerouteNo="1" devices="tripinfo_C1_1.2 routing_C1_1.2" vType="jeep" speedFactor="1.00" vaporized=""/>
    <tripinfo id="C1_1.1" depart="63.70" departLane="440471861#0_1" departPos="12.10" departPosLat="0.00" departSpeed="27.78" departDelay="0.00" arrival="181.40" arrivalLane="-793339796#2_2" arrivalPos="82.50" arrivalPosLat="0.00" arrivalSpeed="24.67" duration="117.70" routeLength="1646.99" waitingTime="20.90" waitingCount="1" stopTime="0.00" timeLoss="57.34" rerouteNo="1" devices="tripinfo_C1_1.1 routing_C1_1.1" vType="bus" speedFactor="1.00" vaporized=""/>
    <tripinfo id="D1_1.2" depart="92.30" departLane="140483224#1_1" departPos="5.10" departPosLat="0.00" departSpeed="26.79" departDelay="0.00" arrival="182.80" arrivalLane="-793339796#2_2" arrivalPos="82.50" arrivalPosLat="0.00" arrivalSpeed="26.71" duration="90.50" routeLength="1648.38" waitingTime="0.00" waitingCount="0" stopTime="0.00" timeLoss="26.56" rerouteNo="1" devices="tripinfo_D1_1.2 routing_D1_1.2" vType="car" speedFactor="0.96" vaporized=""/>
    <tripinfo id="B2_1.0" depart="62.00" departLane="-361257727#0_1" departPos="5.10" departPosLat="0.00" departSpeed="7.79" departDelay="0.00" arrival="192.60" arrivalLane="-440471861#0_1" arrivalPos="31.52" arrivalPosLat="-0.00" arrivalSpeed="25.84" duration="130.60" routeLength="1397.68" waitingTime="0.00" waitingCount="0" stopTime="0.00" timeLoss="5.40" rerouteNo="1" devices="tripinfo_B2_1.0 routing_B2_1.0" vType="car" speedFactor="0.93" vaporized=""/>
    <personinfo id="pf_2.3" depart="135.00" type="ped" speedFactor="0.97" duration="59.70" waitingTime="33.90" timeLoss="36.83" traveltime="59.70">
        <walk depart="135.00" departPos="15.09" arrival="194.70" arrivalPos="3.44" duration="59.70" routeLength="30.72" timeLoss="36.83" maxSpeed="1.34" waitingTime="33.90"/>
    </personinfo>
    <tripinfo id="D2_1.0" depart="93.70" departLane="140483224#1_2" departPos="7.20" departPosLat="0.00" departSpeed="28.45" departDelay="0.00" arrival="198.10" arrivalLane="-145894807#0_1" arrivalPos="260.95" arrivalPosLat="-0.00" arrivalSpeed="8.52" duration="104.40" routeLength="1090.66" waitingTime="9.80" waitingCount="1" stopTime="0.00" timeLoss="21.11" rerouteNo="1" devices="tripinfo_D2_1.0 routing_D2_1.0" vType="truck" speedFactor="1.02" vaporized=""/>
    <tripinfo id="C3_1.2" depart="156.50" departLane="440471861#0_1" departPos="8.10" departPosLat="0.00" departSpeed="27.78" departDelay="0.00" arrival="205.20" arrivalLane="-140483224#1_2" arrivalPos="64.04" arrivalPosLat="0.00" arrivalSpeed="27.74" duration="48.70" routeLength="1049.78" waitingTime="0.00" waitingCount="0" stopTime="0.00" timeLoss="9.50" rerouteNo="1" devices="tripinfo_C3_1.2 routing_C3_1.2" vType="jeep" speedFactor="1.00" vaporized=""/>
    <tripinfo id="D1_1.3" depart="117.10" departLane="140483224#1_1" departPos="7.20" departPosLat="0.00" departSpeed="25.89" departDelay="0.00" arrival="209.10" arrivalLane="-793339796#2_2" arrivalPos="82.50" arrivalPosLat="0.00" arrivalSpeed="25.52" duration="92.00" routeLength="1646.28" waitingTime="0.00" waitingCount="0" stopTime="0.00" timeLoss="25.91" rerouteNo="1" devices="tripinfo_D1_1.3 routing_D1_1.3" vType="truck" speedFactor="0.93" vaporized=""/>
    <personinfo id="pf_4.2" depart="90.00" type="ped" speedFactor="0.97" duration="124.90" waitingTime="2.60" timeLoss="14.78" traveltime="124.90">
        <walk depart="90.00" departPos="25.00" arrival="149.30" arrivalPos="29.11" duration="59.30" routeLength="72.15" timeLoss="5.74" maxSpeed="1.35" waitingTime="0.00"/>
        <walk depart="149.30" departPos="29.11" arrival="214.90" arrivalPos="29.05" duration="65.60" routeLength="76.20" timeLoss="9.03" maxSpeed="1.35" waitingTime="2.60"/>
    </personinfo>
    <tripinfo id="C1_1.3" depart="142.00" departLane="440471861#0_1" departPos="8.10" departPosLat="0.00" departSpeed="27.78" departDelay="0.00" arrival="217.50" arrivalLane="-793339796#2_2" arrivalPos="82.50" arrivalPosLat="0.00" arrivalSpeed="24.40" duration="75.50" routeLength="1650.99" waitingTime="0.00" waitingCount="0" stopTime="0.00" timeLoss="14.88" rerouteNo="1" devices="tripinfo_C1_1.3 routing_C1_1.3" vType="jeep" speedFactor="1.00" vaporized=""/>
    <tripinfo id="A3_1.0" depart="137.20" departLane="-793339796#2_2" departPos="5.10" departPosLat="0.00" departSpeed="26.39" departDelay="10.10" arrival="225.40" arrivalLane="-140483224#1_2" arrivalPos="64.04" arrivalPosLat="0.00" arrivalSpeed="26.30" duration="88.20" routeLength="1080.94" waitingTime="37.70" waitingCount="1" stopTime="0.00" timeLoss="45.67" rerouteNo="1" devices="tripinfo_A3_1.0 routing_A3_1.0" vType="car" speedFactor="0.95" vaporized=""/>
    <tripinfo id="A2_1.3" depart="137.50" departLane="-793339796#2_1" departPos="5.10" departPosLat="0.00" departSpeed="23.72" departDelay="7.60" arrival="226.70" arrivalLane="-440471861#0_2" arrivalPos="31.52" arrivalPosLat="0.00" arrivalSpeed="26.07" duration="89.20" routeLength="1081.27" waitingTime="32.60" waitingCount="1" stopTime="0.00" timeLoss="47.78" rerouteNo="1" devices="tripinfo_A2_1.3 routing_A2_1.3" vType="car" speedFactor="0.94" vaporized=""/>
    <tripinfo id="B1_1.0" depart="75.60" departLane="-361257727#0_1" departPos="5.10" departPosLat="0.00" departSpeed="8.25" departDelay="0.00" arrival="226.80" arrivalLane="-793339796#2_2" arrivalPos="82.50" arrivalPosLat="0.00" arrivalSpeed="27.49" duration="151.20" routeLength="1915.44" waitingTime="0.00" waitingCount="0" stopTime="0.00" timeLoss="15.24" rerouteNo="1" devices="tripinfo_B1_1.0 routing_B1_1.0" vType="car" speedFactor="0.99" vaporized=""/>
    <tripinfo id="A2_1.2" depart="137.20" departLane="-793339796#2_1" departPos="8.10" departPosLat="0.00" departSpeed="27.78" departDelay="11.40" arrival="233.40" arrivalLane="-440471861#0_1" arrivalPos="31.52" arrivalPosLat="0.00" arrivalSpeed="27.76" duration="96.20" routeLength="1078.27" waitingTime="38.30" waitingCount="1" stopTime="0.00" timeLoss="57.32" rerouteNo="1" devices="tripinfo_A2_1.2 routing_A2_1.2" vType="jeep" speedFactor="1.00" vaporized=""/>
    <personinfo id="pf_2.4" depart="180.00" type="ped" speedFactor="1.15" duration="62.80" waitingTime="41.30" timeLoss="43.53" traveltime="62.80">
        <walk depart="180.00" departPos="15.09" arrival="242.80" arrivalPos="3.44" duration="62.80" routeLength="30.72" timeLoss="43.53" maxSpeed="1.59" waitingTime="41.30"/>
    </personinfo>
    <personinfo id="pf_2.5" depart="225.00" type="ped" speedFactor="0.98" duration="25.40" waitingTime="0.00" timeLoss="2.73" traveltime="25.40">
        <walk depart="225.00" departPos="15.09" arrival="250.40" arrivalPos="3.44" duration="25.40" routeLength="30.72" timeLoss="2.73" maxSpeed="1.36" waitingTime="0.00"/>
    </personinfo>
    <personinfo id="pf_4.3" depart="135.00" type="ped" speedFactor="0.99" duration="119.60" waitingTime="0.00" timeLoss="11.68" traveltime="119.60">
        <walk depart="135.00" departPos="25.00" arrival="193.20" arrivalPos="29.11" duration="58.20" routeLength="72.15" timeLoss="5.71" maxSpeed="1.37" waitingTime="0.00"/>
        <walk depart="193.20" departPos="29.11" arrival="254.60" arrivalPos="29.05" duration="61.40" routeLength="76.20" timeLoss="5.97" maxSpeed="1.37" waitingTime="0.00"/>
    </personinfo>
    <tripinfo id="A1_1.0" depart="157.90" departLane="-793339796#2_1" departPos="2.30" departPosLat="0.00" departSpeed="26.36" departDelay="0.00" arrival="255.10" arrivalLane="-145894807#0_1" arrivalPos="260.95" arrivalPosLat="0.00" arrivalSpeed="7.73" duration="97.20" routeLength="1059.52" waitingTime="0.00" waitingCount="0" stopTime="0.00" timeLoss="2.76" rerouteNo="1" devices="tripinfo_A1_1.0 routing_A1_1.0" vType="motorcycle" speedFactor="0.95" vaporized=""/>
    <tripinfo id="B2_1.1" depart="129.20" departLane="-361257727#0_1" departPos="8.10" departPosLat="0.00" departSpeed="8.33" departDelay="0.00" arrival="257.00" arrivalLane="-440471861#0_1" arrivalPos="31.52" arrivalPosLat="-0.00" arrivalSpeed="27.72" duration="127.80" routeLength="1394.68" waitingTime="0.00" waitingCount="0" stopTime="0.00" timeLoss="11.11" rerouteNo="1" devices="tripinfo_B2_1.1 routing_B2_1.1" vType="jeep" speedFactor="1.00" vaporized=""/>
    <tripinfo id="D2_1.1" depart="134.80" departLane="140483224#1_1" departPos="8.10" departPosLat="0.00" departSpeed="27.78" departDelay="0.00" arrival="257.20" arrivalLane="-145894807#0_1" arrivalPos="260.95" arrivalPosLat="0.00" arrivalSpeed="8.29" duration="122.40" routeLength="1089.76" waitingTime="20.60" waitingCount="1" stopTime="0.00" timeLoss="37.15" rerouteNo="1" devices="tripinfo_D2_1.1 routing_D2_1.1" vType="jeep" speedFactor="1.00" vaporized=""/>
    <tripinfo id="D3_1.1" depart="201.70" departLane="140483224#1_2" departPos="5.10" departPosLat="0.00" departSpeed="22.64" departDelay="0.00" arrival="269.10" arrivalLane="-440471861#0_2" arrivalPos="31.52" arrivalPosLat="0.00" arrivalSpeed="22.58" duration="67.40" routeLength="1067.97" waitingTime="6.10" waitingCount="2" stopTime="0.00" timeLoss="18.36" rerouteNo="1" devices="tripinfo_D3_1.1 routing_D3_1.1" vType="car" speedFactor="0.82" vaporized=""/>
    <tripinfo id="D3_1.2" depart="206.80" departLane="140483224#1_2" departPos="5.10" departPosLat="0.00" departSpeed="29.15" departDelay="0.00" arrival="270.40" arrivalLane="-440471861#0_2" arrivalPos="31.52" arrivalPosLat="0.00" arrivalSpeed="24.82" duration="63.60" routeLength="1067.97" waitingTime="0.00" waitingCount="0" stopTime="0.00" timeLoss="25.46" rerouteNo="1" devices="tripinfo_D3_1.2 routing_D3_1.2" vType="car" speedFactor="1.05" vaporized=""/>
    <tripinfo id="A3_1.1" depart="193.40" departLane="-793339796#2_1" departPos="2.30" departPosLat="0.00" departSpeed="28.47" departDelay="0.00" arrival="277.70" arrivalLane="-140483224#1_2" arrivalPos="64.04" arrivalPosLat="0.00" arrivalSpeed="28.47" duration="84.30" routeLength="1083.74" waitingTime="35.40" waitingCount="1" stopTime="0.00" timeLoss="44.78" rerouteNo="1" devices="tripinfo_A3_1.1 routing_A3_1.1" vType="tricycle" speedFactor="1.02" vaporized=""/>
    <tripinfo id="A3_1.2" depart="214.60" departLane="-793339796#2_2" departPos="5.10" departPosLat="0.00" departSpeed="18.10" departDelay="0.00" arrival="280.50" arrivalLane="-140483224#1_2" arrivalPos="64.04" arrivalPosLat="0.00" arrivalSpeed="27.05" duration="65.90" routeLength="1080.94" waitingTime="2.10" waitingCount="1" stopTime="0.00" timeLoss="24.51" rerouteNo="1" devices="tripinfo_A3_1.2 routing_A3_1.2" vType="car" speedFactor="0.98" vaporized=""/>
    <tripinfo id="B2_1.2" depart="150.30" departLane="-361257727#0_1" departPos="2.30" departPosLat="0.00" departSpeed="7.32" departDelay="0.00" arrival="289.30" arrivalLane="-440471861#0_1" arrivalPos="31.52" arrivalPosLat="-0.00" arrivalSpeed="24.37" duration="139.00" routeLength="1400.48" waitingTime="0.00" waitingCount="0" stopTime="0.00" timeLoss="5.40" rerouteNo="1" devices="tripinfo_B2_1.2 routing_B2_1.2" vType="tricycle" speedFactor="0.88" vaporized=""/>
    <personinfo id="pf_1.0" depart="0.00" type="ped" speedFactor="1.06" duration="295.10" waitingTime="59.40" timeLoss="83.40" traveltime="295.10">
        <walk depart="0.00" departPos="25.00" arrival="295.10" arrivalPos="3.44" duration="295.10" routeLength="311.67" timeLoss="83.40" maxSpeed="1.47" waitingTime="59.40"/>
    </personinfo>
    <personinfo id="pf_2.6" depart="270.00" type="ped" speedFactor="1.00" duration="26.00" waitingTime="1.40" timeLoss="3.92" traveltime="26.00">
        <walk depart="270.00" departPos="15.09" arrival="296.00" arrivalPos="3.44" duration="26.00" routeLength="30.72" timeLoss="3.92" maxSpeed="1.39" waitingTime="1.40"/>
    </personinfo>
    <personinfo id="pf_4.4" depart="180.00" type="ped" speedFactor="1.02" duration="116.10" waitingTime="0.00" timeLoss="11.79" traveltime="116.10">
        <walk depart="180.00" departPos="25.00" arrival="236.60" arrivalPos="29.11" duration="56.60" routeLength="72.15" timeLoss="5.87" maxSpeed="1.42" waitingTime="0.00"/>
        <walk depart="236.60" departPos="29.11" arrival="296.10" arrivalPos="29.05" duration="59.50" routeLength="76.20" timeLoss="5.92" maxSpeed="1.42" waitingTime="0.00"/>
    </personinfo>
    <tripinfo id="D2_1.2" depart="185.20" departLane="140483224#1_1" departPos="5.10" departPosLat="0.00" departSpeed="28.21" departDelay="0.00" arrival="298.30" arrivalLane="-145894807#0_1" arrivalPos="260.95" arrivalPosLat="0.00" arrivalSpeed="8.37" duration="113.10" routeLength="1092.76" waitingTime="21.70" waitingCount="1" stopTime="0.00" timeLoss="29.09" rerouteNo="1" devices="tripinfo_D2_1.2 routing_D2_1.2" vType="car" speedFactor="1.02" vaporized=""/>
    <tripinfo id="C1_1.4" depart="227.40" departLane="440471861#0_1" departPos="2.30" departPosLat="0.00" departSpeed="29.51" departDelay="0.00" arrival="306.00" arrivalLane="-793339796#2_2" arrivalPos="82.50" arrivalPosLat="0.00" arrivalSpeed="29.24" duration="78.60" routeLength="1656.79" waitingTime="11.30" waitingCount="1" stopTime="0.00" timeLoss="21.31" rerouteNo="1" devices="tripinfo_C1_1.4 routing_C1_1.4" vType="motorcycle" speedFactor="1.06" vaporized=""/>
    <tripinfo id="C3_1.3" depart="208.00" departLane="440471861#0_1" departPos="2.30" departPosLat="0.00" departSpeed="26.97" departDelay="0.00" arrival="307.00" arrivalLane="-140483224#1_2" arrivalPos="64.04" arrivalPosLat="0.00" arrivalSpeed="26.91" duration="99.00" routeLength="1055.58" waitingTime="43.40" waitingCount="2" stopTime="0.00" timeLoss="58.41" rerouteNo="1" devices="tripinfo_C3_1.3 routing_C3_1.3" vType="tricycle" speedFactor="0.97" vaporized=""/>
    <tripinfo id="D2_1.3" depart="223.20" departLane="140483224#1_1" departPos="2.30" departPosLat="0.00" departSpeed="26.42" departDelay="0.00" arrival="320.30" arrivalLane="-145894807#0_1" arrivalPos="260.95" arrivalPosLat="0.00" arrivalSpeed="7.87" duration="97.10" routeLength="1095.56" waitingTime="3.70" waitingCount="1" stopTime="0.00" timeLoss="7.31" rerouteNo="1" devices="tripinfo_D2_1.3 routing_D2_1.3" vType="motorcycle" speedFactor="0.95" vaporized=""/>
    <tripinfo id="D1_1.4" depart="236.00" departLane="140483224#1_1" departPos="7.20" departPosLat="0.00" departSpeed="26.48" departDelay="0.00" arrival="323.00" arrivalLane="-793339796#2_2" arrivalPos="82.50" arrivalPosLat="0.00" arrivalSpeed="25.30" duration="87.00" routeLength="1646.28" waitingTime="0.00" waitingCount="0" stopTime="0.00" timeLoss="22.39" rerouteNo="1" devices="tripinfo_D1_1.4 routing_D1_1.4" vType="truck" speedFactor="0.95" vaporized=""/>
    <tripinfo id="D3_1.3" depart="212.70" departLane="140483224#1_2" departPos="8.10" departPosLat="0.00" departSpeed="27.78" departDelay="0.00" arrival="324.60" arrivalLane="-440471861#0_2" arrivalPos="31.52" arrivalPosLat="0.00" arrivalSpeed="27.74" duration="111.90" routeLength="1064.97" waitingTime="43.30" waitingCount="5" stopTime="0.00" timeLoss="72.01" rerouteNo="1" devices="tripinfo_D3_1.3 routing_D3_1.3" vType="jeep" speedFactor="1.00" vaporized=""/>
    <tripinfo id="A3_1.3" depart="222.10" departLane="-793339796#2_1" departPos="2.30" departPosLat="0.00" departSpeed="24.80" departDelay="0.00" arrival="326.00" arrivalLane="-140483224#1_2" arrivalPos="64.04" arrivalPosLat="0.00" arrivalSpeed="24.71" duration="103.90" routeLength="1083.74" waitingTime="45.10" waitingCount="2" stopTime="0.00" timeLoss="58.50" rerouteNo="1" devices="tripinfo_A3_1.3 routing_A3_1.3" vType="motorcycle" speedFactor="0.89" vaporized=""/>
    <tripinfo id="A3_1.4" depart="229.30" departLane="-793339796#2_2" departPos="8.10" departPosLat="0.00" departSpeed="27.78" departDelay="1.70" arrival="334.80" arrivalLane="-140483224#1_2" arrivalPos="64.04" arrivalPosLat="0.00" arrivalSpeed="27.74" duration="105.50" routeLength="1077.94" waitingTime="44.50" waitingCount="1" stopTime="0.00" timeLoss="65.18" rerouteNo="1" devices="tripinfo_A3_1.4 routing_A3_1.4" vType="jeep" speedFactor="1.00" vaporized=""/>
    <personinfo id="pf_4.5" depart="225.00" type="ped" speedFactor="1.01" duration="116.90" waitingTime="0.00" timeLoss="11.22" traveltime="116.90">
        <walk depart="225.00" departPos="25.00" arrival="281.70" arrivalPos="29.11" duration="56.70" routeLength="72.15" timeLoss="5.30" maxSpeed="1.40" waitingTime="0.00"/>
        <walk depart="281.70" departPos="29.11" arrival="341.90" arrivalPos="29.05" duration="60.20" routeLength="76.20" timeLoss="5.92" maxSpeed="1.40" waitingTime="0.00"/>
    </personinfo>
    <personinfo id="pf_2.7" depart="315.00" type="ped" speedFactor="1.04" duration="31.30" waitingTime="7.70" timeLoss="10.09" traveltime="31.30">
        <walk depart="315.00" departPos="15.09" arrival="346.30" arrivalPos="3.44" duration="31.30" routeLength="30.72" timeLoss="10.09" maxSpeed="1.45" waitingTime="7.70"/>
    </personinfo>
    <personinfo id="pf_1.1" depart="45.00" type="ped" speedFactor="0.94" duration="303.10" waitingTime="37.20" timeLoss="63.94" traveltime="303.10">
        <walk depart="45.00" departPos="25.00" arrival="348.10" arrivalPos="3.44" duration="303.10" routeLength="311.67" timeLoss="63.94" maxSpeed="1.30" waitingTime="37.20"/>
    </personinfo>
    <tripinfo id="A1_1.1" depart="257.00" departLane="-793339796#2_1" departPos="8.10" departPosLat="0.00" departSpeed="27.78" departDelay="5.70" arrival="350.90" arrivalLane="-145894807#0_1" arrivalPos="260.95" arrivalPosLat="0.00" arrivalSpeed="8.31" duration="93.90" routeLength="1053.72" waitingTime="0.00" waitingCount="0" stopTime="0.00" timeLoss="4.49" rerouteNo="1" devices="tripinfo_A1_1.1 routing_A1_1.1" vType="jeep" speedFactor="1.00" vaporized=""/>
    <tripinfo id="C3_1.4" depart="303.70" departLane="440471861#0_1" departPos="5.10" departPosLat="0.00" departSpeed="26.86" departDelay="0.00" arrival="355.90" arrivalLane="-140483224#1_2" arrivalPos="64.04" arrivalPosLat="0.00" arrivalSpeed="26.85" duration="52.20" routeLength="1052.78" waitingTime="0.50" waitingCount="1" stopTime="0.00" timeLoss="11.56" rerouteNo="1" devices="tripinfo_C3_1.4 routing_C3_1.4" vType="car" speedFactor="0.97" vaporized=""/>
    <tripinfo id="C1_1.5" depart="294.40" departLane="440471861#0_1" departPos="8.10" departPosLat="0.00" departSpeed="27.78" departDelay="0.00" arrival="369.30" arrivalLane="-793339796#2_2" arrivalPos="82.50" arrivalPosLat="0.00" arrivalSpeed="24.45" duration="74.90" routeLength="1650.99" waitingTime="0.00" waitingCount="0" stopTime="0.00" timeLoss="14.40" rerouteNo="1" devices="tripinfo_C1_1.5 routing_C1_1.5" vType="jeep" speedFactor="1.00" vaporized=""/>
    <tripinfo id="A2_1.4" depart="317.00" departLane="-793339796#2_2" departPos="5.10" departPosLat="0.00" departSpeed="28.18" departDelay="4.10" arrival="377.50" arrivalLane="-440471861#0_1" arrivalPos="31.52" arrivalPosLat="-0.00" arrivalSpeed="28.17" duration="60.50" routeLength="1081.27" waitingTime="6.00" waitingCount="2" stopTime="0.00" timeLoss="22.12" rerouteNo="1" devices="tripinfo_A2_1.4 routing_A2_1.4" vType="car" speedFactor="1.01" vaporized=""/>
    <tripinfo id="A3_1.5" depart="257.00" departLane="-793339796#2_2" departPos="5.10" departPosLat="0.00" departSpeed="23.93" departDelay="1.60" arrival="380.30" arrivalLane="-140483224#1_2" arrivalPos="64.04" arrivalPosLat="0.00" arrivalSpeed="23.93" duration="123.30" routeLength="1080.94" waitingTime="55.50" waitingCount="3" stopTime="0.00" timeLoss="76.36" rerouteNo="1" devices="tripinfo_A3_1.5 routing_A3_1.5" vType="car" speedFactor="0.86" vaporized=""/>
    <tripinfo id="A3_1.6" depart="282.20" departLane="-793339796#2_2" departPos="8.10" departPosLat="0.00" departSpeed="27.78" departDelay="0.00" arrival="386.20" arrivalLane="-140483224#1_2" arrivalPos="64.04" arrivalPosLat="0.00" arrivalSpeed="27.74" duration="104.00" routeLength="1077.94" waitingTime="41.30" waitingCount="1" stopTime="0.00" timeLoss="63.66" rerouteNo="1" devices="tripinfo_A3_1.6 routing_A3_1.6" vType="jeep" speedFactor="1.00" vaporized=""/>
    <personinfo id="pf_4.6" depart="270.00" type="ped" speedFactor="0.97" duration="121.80" waitingTime="0.00" timeLoss="11.98" traveltime="121.80">
        <walk depart="270.00" departPos="25.00" arrival="329.10" arrivalPos="29.11" duration="59.10" routeLength="72.15" timeLoss="5.69" maxSpeed="1.35" waitingTime="0.00"/>
        <walk depart="329.10" departPos="29.11" arrival="391.80" arrivalPos="29.05" duration="62.70" routeLength="76.20" timeLoss="6.29" maxSpeed="1.35" waitingTime="0.00"/>
    </personinfo>
    <tripinfo id="D1_1.5" depart="315.20" departLane="140483224#1_1" departPos="5.10" departPosLat="0.00" departSpeed="31.67" departDelay="0.00" arrival="393.50" arrivalLane="-793339796#2_2" arrivalPos="82.50" arrivalPosLat="0.00" arrivalSpeed="31.61" duration="78.30" routeLength="1648.38" waitingTime="0.70" waitingCount="1" stopTime="0.00" timeLoss="24.19" rerouteNo="1" devices="tripinfo_D1_1.5 routing_D1_1.5" vType="car" speedFactor="1.14" vaporized=""/>
    <personinfo id="pf_1.2" depart="90.00" type="ped" speedFactor="1.01" duration="307.80" waitingTime="61.00" timeLoss="85.70" traveltime="307.80">
        <walk depart="90.00" departPos="25.00" arrival="397.80" arrivalPos="3.44" duration="307.80" routeLength="311.67" timeLoss="85.70" maxSpeed="1.40" waitingTime="61.00"/>
    </personinfo>
    <personinfo id="pf_2.8" depart="360.00" type="ped" speedFactor="1.01" duration="37.90" waitingTime="13.50" timeLoss="15.94" traveltime="37.90">
        <walk depart="360.00" departPos="15.09" arrival="397.90" arrivalPos="3.44" duration="37.90" routeLength="30.72" timeLoss="15.94" maxSpeed="1.40" waitingTime="13.50"/>
    </personinfo>
    <tripinfo id="C3_1.5" depart="323.90" departLane="440471861#0_1" departPos="5.10" departPosLat="0.00" departSpeed="29.23" departDelay="0.00" arrival="406.10" arrivalLane="-140483224#1_2" arrivalPos="64.04" arrivalPosLat="0.00" arrivalSpeed="29.15" duration="82.20" routeLength="1052.78" waitingTime="28.50" waitingCount="2" stopTime="0.00" timeLoss="44.90" rerouteNo="1" devices="tripinfo_C3_1.5 routing_C3_1.5" vType="car" speedFactor="1.05" vaporized=""/>