<?xml version="1.0" encoding="UTF-8"?>

<!-- generated on 2026-02-02 05:54:09 by Eclipse SUMO sumo Version 1.24.0
<sumoConfiguration xmlns:xsi="http://www.w3.org/2001/XMLSchema-instance" xsi:noNamespaceSchemaLocation="http://sumo.dlr.de/xsd/sumoConfiguration.xsd">

    <input>
        <net-file value="Olivarez_traci\network/map1.net.xml"/>
        <route-files value="Olivarez_traci\demand\flows_traffic_jam.rou.xml"/>
        <additional-files value="Olivarez_traci\additionals/map.poly.xml,Olivarez_traci\ additionals/detectors.add.xml"/>
    </input>

    <output>
        <tripinfo-output value="Olivarez_traci\output_A2C\SP_A2C_Unified_Jam_trips.xml"/>
        <statistic-output value="Olivarez_traci\output_A2C\SP_A2C_Unified_Jam_stats.xml"/>
    </output>

    <time>
        <begin value="0"/>
        <end value="10800"/>
        <step-length value="0.1"/>
    </time>

    <processing>
        <lateral-resolution value="0.1"/>
        <collision.action value="none"/>
        <collision.check-junctions value="false"/>
        <collision.mingap-factor value="0"/>
    </processing>

    <report>
        <no-warnings value="true"/>
    </report>

    <traci_server>
        <remote-port value="51291"/>
    </traci_server>

    <gui_only>
        <delay value="0"/>
    </gui_only>

</sumoConfiguration>
-->

<tripinfos xmlns:xsi="http://www.w3.org/2001/XMLSchema-instance" xsi:noNamespaceSchemaLocation="http://sumo.dlr.de/xsd/tripinfo_file.xsd">
    <personinfo id="pf_2.0" depart="0.00" type="ped" speedFactor="0.83" duration="29.90" waitingTime="0.00" timeLoss="3.11" traveltime="29.90">
        <walk depart="0.00" departPos="15.09" arrival="29.90" arrivalPos="3.44" duration="29.90" routeLength="30.72" timeLoss="3.11" maxSpeed="1.15" waitingTime="0.00"/>
    </personinfo>
    <personinfo id="pf_2.1" depart="15.00" type="ped" speedFactor="0.87" duration="28.10" waitingTime="0.00" timeLoss="2.75" traveltime="28.10">
        <walk depart="15.00" departPos="15.09" arrival="43.10" arrivalPos="3.44" duration="28.10" routeLength="30.72" timeLoss="2.75" maxSpeed="1.21" waitingTime="0.00"/>
    </personinfo>
    <tripinfo id="D3_1.0" depart="15.30" departLane="140483224#1_1" departPos="2.30" departPosLat="0.00" departSpeed="26.42" departDelay="0.00" arrival="61.40" arrivalLane="-440471861#0_2" arrivalPos="31.52" arrivalPosLat="0.00" arrivalSpeed="26.33" duration="46.10" routeLength="1070.77" waitingTime="0.00" waitingCount="0" stopTime="0.00" timeLoss="4.02" rerouteNo="1" devices="tripinfo_D3_1.0 routing_D3_1.0" vType="tricycle" speedFactor="0.95" vaporized=""/>
    <tripinfo id="A2_1.0" depart="3.00" departLane="-793339796#2_1" departPos="5.10" departPosLat="0.00" departSpeed="29.34" departDelay="0.00" arrival="71.10" arrivalLane="-440471861#0_1" arrivalPos="31.52" arrivalPosLat="0.00" arrivalSpeed="29.23" duration="68.10" routeLength="1081.27" waitingTime="14.50" waitingCount="2" stopTime="0.00" timeLoss="31.22" rerouteNo="1" devices="tripinfo_A2_1.0 routing_A2_1.0" vType="car" speedFactor="1.06" vaporized=""/>
    <tripinfo id="A2_1.2" depart="8.90" departLane="-793339796#2_2" departPos="5.10" departPosLat="0.00" departSpeed="27.37" departDelay="0.00" arrival="71.90" arrivalLane="-440471861#0_2" arrivalPos="31.52" arrivalPosLat="-0.36" arrivalSpeed="27.28" duration="63.00" routeLength="1081.27" waitingTime="7.60" waitingCount="2" stopTime="0.00" timeLoss="23.41" rerouteNo="1" devices="tripinfo_A2_1.2 routing_A2_1.2" vType="car" speedFactor="0.99" vaporized=""/>
    <tripinfo id="A2_1.1" depart="6.90" departLane="-793339796#2_1" departPos="5.10" departPosLat="0.00" departSpeed="27.02" departDelay="0.00" arrival="73.30" arrivalLane="-440471861#0_1" arrivalPos="31.52" arrivalPosLat="0.00" arrivalSpeed="26.93" duration="66.40" routeLength="1081.27" waitingTime="3.10" waitingCount="1" stopTime="0.00" timeLoss="26.33" rerouteNo="1" devices="tripinfo_A2_1.1 routing_A2_1.1" vType="car" speedFactor="0.97" vaporized=""/>
    <tripinfo id="A3_1.0" depart="15.20" departLane="-793339796#2_2" departPos="8.10" departPosLat="0.00" departSpeed="27.78" departDelay="0.00" arrival="80.40" arrivalLane="-140483224#1_2" arrivalPos="64.04" arrivalPosLat="0.00" arrivalSpeed="27.73" duration="65.20" routeLength="1077.94" waitingTime="0.00" waitingCount="0" stopTime="0.00" timeLoss="24.83" rerouteNo="1" devices="tripinfo_A3_1.0 routing_A3_1.0" vType="jeep" speedFactor="1.00" vaporized=""/>
    <personinfo id="pf_2.4" depart="60.00" type="ped" speedFactor="1.13" duration="30.20" waitingTime="8.10" timeLoss="10.66" traveltime="30.20">
        <walk depart="60.00" departPos="15.09" arrival="90.20" arrivalPos="3.44" duration="30.20" routeLength="30.72" timeLoss="10.66" maxSpeed="1.57" waitingTime="8.10"/>
    </personinfo>
    <tripinfo id="D1_1.0" depart="1.20" departLane="140483224#1_1" departPos="5.10" departPosLat="0.00" departSpeed="24.93" departDelay="0.00" arrival="92.50" arrivalLane="-793339796#2_2" arrivalPos="82.50" arrivalPosLat="0.00" arrivalSpeed="24.89" duration="91.30" routeLength="1648.38" waitingTime="4.80" waitingCount="1" stopTime="0.00" timeLoss="22.54" rerouteNo="1" devices="tripinfo_D1_1.0 routing_D1_1.0" vType="car" speedFactor="0.90" vaporized=""/>
    <personinfo id="pf_2.3" depart="45.00" type="ped" speedFactor="0.95" duration="48.00" waitingTime="21.70" timeLoss="24.69" traveltime="48.00">
        <walk depart="45.00" departPos="15.09" arrival="93.00" arrivalPos="3.44" duration="48.00" routeLength="30.72" timeLoss="24.69" maxSpeed="1.32" waitingTime="21.70"/>
    </personinfo>
    <personinfo id="pf_2.2" depart="30.00" type="ped" speedFactor="0.92" duration="63.90" waitingTime="37.00" timeLoss="39.78" traveltime="63.90">
        <walk depart="30.00" departPos="15.09" arrival="93.90" arrivalPos="3.44" duration="63.90" routeLength="30.72" timeLoss="39.78" maxSpeed="1.27" waitingTime="37.00"/>
    </personinfo>
    <tripinfo id="C3_1.0" depart="6.90" departLane="440471861#0_1" departPos="2.30" departPosLat="0.00" departSpeed="21.32" departDelay="0.00" arrival="95.90" arrivalLane="-140483224#1_1" arrivalPos="64.04" arrivalPosLat="-0.00" arrivalSpeed="29.15" duration="89.00" routeLength="1055.58" waitingTime="40.20" waitingCount="2" stopTime="0.00" timeLoss="51.71" rerouteNo="1" devices="tripinfo_C3_1.0 routing_C3_1.0" vType="motorcycle" speedFactor="1.06" vaporized=""/>
    <tripinfo id="C3_1.1" depart="8.60" departLane="440471861#0_1" departPos="12.10" departPosLat="0.00" departSpeed="16.81" departDelay="0.00" arrival="108.40" arrivalLane="-140483224#1_1" arrivalPos="64.04" arrivalPosLat="-0.00" arrivalSpeed="27.74" duration="99.80" routeLength="1045.78" waitingTime="28.20" waitingCount="2" stopTime="0.00" timeLoss="60.74" rerouteNo="1" devices="tripinfo_C3_1.1 routing_C3_1.1" vType="bus" speedFactor="1.00" vaporized=""/>
    <tripinfo id="C1_1.0" depart="6.60" departLane="440471861#0_1" departPos="5.10" departPosLat="0.00" departSpeed="27.96" departDelay="0.00" arrival="111.50" arrivalLane="-793339796#2_1" arrivalPos="82.50" arrivalPosLat="-0.00" arrivalSpeed="27.91" duration="104.90" routeLength="1653.99" waitingTime="27.20" waitingCount="1" stopTime="0.00" timeLoss="44.69" rerouteNo="1" devices="tripinfo_C1_1.0 routing_C1_1.0" vType="car" speedFactor="1.01" vaporized=""/>
    <personinfo id="pf_4.0" depart="0.00" type="ped" speedFactor="1.11" duration="114.80" waitingTime="7.80" timeLoss="18.60" traveltime="114.80">
        <walk depart="0.00" departPos="25.00" arrival="52.00" arrivalPos="29.11" duration="52.00" routeLength="72.15" timeLoss="5.21" maxSpeed="1.54" waitingTime="0.00"/>
        <walk depart="52.00" departPos="29.11" arrival="114.80" arrivalPos="29.05" duration="62.80" routeLength="76.20" timeLoss="13.39" maxSpeed="1.54" waitingTime="7.80"/>
    </personinfo>
    <tripinfo id="C1_1.1" depart="30.30" departLane="440471861#0_1" departPos="5.10" departPosLat="0.00" departSpeed="26.25" departDelay="0.00" arrival="116.30" arrivalLane="-793339796#2_2" arrivalPos="82.50" arrivalPosLat="0.00" arrivalSpeed="26.22" duration="86.00" routeLength="1653.99" waitingTime="0.00" waitingCount="0" stopTime="0.00" timeLoss="21.80" rerouteNo="1" devices="tripinfo_C1_1.1 routing_C1_1.1" vType="car" speedFactor="0.94" vaporized=""/>
    <tripinfo id="C1_1.2" depart="35.30" departLane="440471861#0_1" departPos="2.30" departPosLat="0.00" departSpeed="31.62" departDelay="0.00" arrival="119.90" arrivalLane="-793339796#2_1" arrivalPos="82.50" arrivalPosLat="-0.00" arrivalSpeed="31.36" duration="84.60" routeLength="1656.79" waitingTime="0.00" waitingCount="0" stopTime="0.00" timeLoss="31.13" rerouteNo="1" devices="tripinfo_C1_1.2 routing_C1_1.2" vType="tricycle" speedFactor="1.14" vaporized=""/>
    <tripinfo id="A2_1.4" depart="46.80" departLane="-793339796#2_1" departPos="5.10" departPosLat="0.00" departSpeed="28.29" departDelay="5.40" arrival="122.70" arrivalLane="-440471861#0_1" arrivalPos="31.52" arrivalPosLat="0.00" arrivalSpeed="28.19" duration="75.90" routeLength="1081.27" waitingTime="26.40" waitingCount="1" stopTime="0.00" timeLoss="37.64" rerouteNo="1" devices="tripinfo_A2_1.4 routing_A2_1.4" vType="car" speedFactor="1.02" vaporized=""/>
    <tripinfo id="A2_1.6" depart="48.10" departLane="-793339796#2_1" departPos="5.10" departPosLat="0.00" departSpeed="27.03" departDelay="0.00" arrival="124.40" arrivalLane="-440471861#0_1" arrivalPos="31.52" arrivalPosLat="0.00" arrivalSpeed="26.95" duration="76.30" routeLength="1081.27" waitingTime="20.90" waitingCount="1" stopTime="0.00" timeLoss="36.28" rerouteNo="1" devices="tripinfo_A2_1.6 routing_A2_1.6" vType="car" speedFactor="0.97" vaporized=""/>
    <tripinfo id="A2_1.5" depart="46.80" departLane="-793339796#2_2" departPos="5.10" departPosLat="0.00" departSpeed="24.66" departDelay="0.20" arrival="126.90" arrivalLane="-440471861#0_1" arrivalPos="31.52" arrivalPosLat="-0.00" arrivalSpeed="24.63" duration="80.10" routeLength="1081.27" waitingTime="18.90" waitingCount="1" stopTime="0.00" timeLoss="36.16" rerouteNo="1" devices="tripinfo_A2_1.5 routing_A2_1.5" vType="car" speedFactor="0.89" vaporized=""/>
    <tripinfo id="A2_1.3" depart="16.40" departLane="-793339796#2_1" departPos="7.20" departPosLat="0.00" departSpeed="26.64" departDelay="0.00" arrival="130.50" arrivalLane="-440471861#0_2" arrivalPos="31.52" arrivalPosLat="0.00" arrivalSpeed="26.62" duration="114.10" routeLength="1079.17" waitingTime="43.40" waitingCount="1" stopTime="0.00" timeLoss="73.57" rerouteNo="1" devices="tripinfo_A2_1.3 routing_A2_1.3" vType="truck" speedFactor="0.96" vaporized=""/>
    <tripinfo id="B2_1.0" depart="13.90" departLane="-361257727#0_1" departPos="2.30" departPosLat="0.00" departSpeed="8.68" departDelay="0.00" arrival="131.70" arrivalLane="-440471861#0_1" arrivalPos="31.52" arrivalPosLat="-0.00" arrivalSpeed="28.70" duration="117.80" routeLength="1400.48" waitingTime="0.00" waitingCount="0" stopTime="0.00" timeLoss="5.14" rerouteNo="1" devices="tripinfo_B2_1.0 routing_B2_1.0" vType="motorcycle" speedFactor="1.04" vaporized=""/>
    <personinfo id="pf_4.1" depart="15.00" type="ped" speedFactor="1.02" duration="116.90" waitingTime="0.00" timeLoss="11.71" traveltime="116.90">
        <walk depart="15.00" departPos="25.00" arrival="71.70" arrivalPos="29.11" duration="56.70" routeLength="72.15" timeLoss="5.54" maxSpeed="1.41" waitingTime="0.00"/>
        <walk depart="71.70" departPos="29.11" arrival="131.90" arrivalPos="29.05" duration="60.20" routeLength="76.20" timeLoss="6.17" maxSpeed="1.41" waitingTime="0.00"/>
    </personinfo>
    <tripinfo id="A3_1.1" depart="31.00" departLane="-793339796#2_1" departPos="12.10" departPosLat="0.00" departSpeed="27.78" departDelay="0.00" arrival="132.10" arrivalLane="-140483224#1_2" arrivalPos="64.04" arrivalPosLat="0.00" arrivalSpeed="27.78" duration="101.10" routeLength="1073.94" waitingTime="38.40" waitingCount="1" stopTime="0.00" timeLoss="60.93" rerouteNo="1" devices="tripinfo_A3_1.1 routing_A3_1.1" vType="bus" speedFactor="1.00" vaporized=""/>
    <tripinfo id="C2_1.0" depart="40.30" departLane="440471861#0_2" departPos="5.10" departPosLat="0.00" departSpeed="26.65" departDelay="0.00" arrival="134.20" arrivalLane="-145894807#0_1" arrivalPos="260.95" arrivalPosLat="0.00" arrivalSpeed="7.98" duration="93.90" routeLength="1082.06" waitingTime="0.00" waitingCount="0" stopTime="0.00" timeLoss="4.94" rerouteNo="1" devices="tripinfo_C2_1.0 routing_C2_1.0" vType="car" speedFactor="0.96" vaporized=""/>
    <tripinfo id="D1_1.1" depart="47.90" departLane="140483224#1_1" departPos="5.10" departPosLat="0.00" departSpeed="31.78" departDelay="0.00" arrival="135.80" arrivalLane="-793339796#2_2" arrivalPos="82.50" arrivalPosLat="0.00" arrivalSpeed="31.72" duration="87.90" routeLength="1648.38" waitingTime="9.10" waitingCount="3" stopTime="0.00" timeLoss="33.92" rerouteNo="1" devices="tripinfo_D1_1.1 routing_D1_1.1" vType="car" speedFactor="1.14" vaporized=""/>
    <personinfo id="pf_2.6" depart="90.00" type="ped" speedFactor="1.18" duration="50.50" waitingTime="29.50" timeLoss="31.73" traveltime="50.50">
        <walk depart="90.00" departPos="15.09" arrival="140.50" arrivalPos="3.44" duration="50.50" routeLength="30.72" timeLoss="31.73" maxSpeed="1.64" waitingTime="29.50"/>
    </personinfo>
    <personinfo id="pf_2.7" depart="105.00" type="ped" speedFactor="1.15" duration="36.10" waitingTime="14.60" timeLoss="16.94" traveltime="36.10">
        <walk depart="105.00" departPos="15.09" arrival="141.10" arrivalPos="3.44" duration="36.10" routeLength="30.72" timeLoss="16.94" maxSpeed="1.60" waitingTime="14.60"/>
    </personinfo>
    <personinfo id="pf_2.5" depart="75.00" type="ped" speedFactor="0.93" duration="69.10" waitingTime="42.90" timeLoss="45.35" traveltime="69.10">
        <walk depart="75.00" departPos="15.09" arrival="144.10" arrivalPos="3.44" duration="69.10" routeLength="30.72" timeLoss="45.35" maxSpeed="1.29" waitingTime="42.90"/>
    </personinfo>
    <personinfo id="pf_2.8" depart="120.00" type="ped" speedFactor="1.01" duration="24.40" waitingTime="0.00" timeLoss="2.39" traveltime="24.40">
        <walk depart="120.00" departPos="15.09" arrival="144.40" arrivalPos="3.44" duration="24.40" routeLength="30.72" timeLoss="2.39" maxSpeed="1.40" waitingTime="0.00"/>
    </personinfo>
    <tripinfo id="D2_1.0" depart="25.10" departLane="140483224#1_1" departPos="2.30" departPosLat="0.00" departSpeed="28.06" departDelay="0.00" arrival="146.20" arrivalLane="-145894807#0_1" arrivalPos="260.95" arrivalPosLat="0.00" arrivalSpeed="8.41" duration="121.10" routeLength="1095.56" waitingTime="30.30" waitingCount="1" stopTime="0.00" timeLoss="36.48" rerouteNo="1" devices="tripinfo_D2_1.0 routing_D2_1.0" vType="tricycle" speedFactor="1.01" vaporized=""/>
    <tripinfo id="C3_1.3" depart="47.20" departLane="440471861#0_1" departPos="2.30" departPosLat="0.00" departSpeed="29.34" departDelay="0.00" arrival="146.90" arrivalLane="-140483224#1_1" arrivalPos="64.04" arrivalPosLat="0.00" arrivalSpeed="29.13" duration="99.70" routeLength="1055.58" waitingTime="40.10" waitingCount="1" stopTime="0.00" timeLoss="62.46" rerouteNo="1" devices="tripinfo_C3_1.3 routing_C3_1.3" vType="motorcycle" speedFactor="1.06" vaporized=""/>
    <tripinfo id="D2_1.1" depart="39.10" departLane="140483224#1_1" departPos="8.10" departPosLat="0.00" departSpeed="27.78" departDelay="0.00" arrival="150.00" arrivalLane="-145894807#0_1" arrivalPos="260.95" arrivalPosLat="0.00" arrivalSpeed="8.30" duration="110.90" routeLength="1089.76" waitingTime="10.50" waitingCount="1" stopTime="0.00" timeLoss="25.72" rerouteNo="1" devices="tripinfo_D2_1.1 routing_D2_1.1" vType="jeep" speedFactor="1.00" vaporized=""/>
    <tripinfo id="D2_1.2" depart="67.30" departLane="140483224#1_1" departPos="5.10" departPosLat="0.00" departSpeed="27.46" departDelay="0.00" arrival="155.90" arrivalLane="-145894807#0_1" arrivalPos="260.95" arrivalPosLat="0.00" arrivalSpeed="8.19" duration="88.60" routeLength="1092.76" waitingTime="0.00" waitingCount="0" stopTime="0.00" timeLoss="2.25" rerouteNo="1" devices="tripinfo_D2_1.2 routing_D2_1.2" vType="car" speedFactor="0.99" vaporized=""/>
    <personinfo id="pf_4.2" depart="30.00" type="ped" speedFactor="1.01" duration="126.00" waitingTime="8.30" timeLoss="20.32" traveltime="126.00">
        <walk depart="30.00" departPos="25.00" arrival="93.70" arrivalPos="29.11" duration="63.70" routeLength="72.15" timeLoss="12.30" maxSpeed="1.40" waitingTime="6.50"/>
        <walk depart="93.70" departPos="29.11" arrival="156.00" arrivalPos="29.05" duration="62.30" routeLength="76.20" timeLoss="8.02" maxSpeed="1.40" waitingTime="1.80"/>
    </personinfo>
    <tripinfo id="C3_1.2" depart="22.80" departLane="440471861#0_1" departPos="7.20" departPosLat="0.00" departSpeed="27.71" departDelay="0.00" arrival="158.20" arrivalLane="-140483224#1_2" arrivalPos="64.04" arrivalPosLat="0.00" arrivalSpeed="27.71" duration="135.40" routeLength="1050.68" waitingTime="60.90" waitingCount="2" stopTime="0.00" timeLoss="96.12" rerouteNo="1" devices="tripinfo_C3_1.2 routing_C3_1.2" vType="truck" speedFactor="1.00" vaporized=""/>
    <tripinfo id="D1_1.2" depart="74.50" departLane="140483224#1_1" departPos="2.30" departPosLat="0.00" departSpeed="26.46" departDelay="0.00" arrival="159.30" arrivalLane="-793339796#2_2" arrivalPos="82.50" arrivalPosLat="0.00" arrivalSpeed="26.40" duration="84.80" routeLength="1651.18" waitingTime="0.00" waitingCount="0" stopTime="0.00" timeLoss="20.01" rerouteNo="1" devices="tripinfo_D1_1.2 routing_D1_1.2" vType="tricycle" speedFactor="0.95" vaporized=""/>
    <tripinfo id="D3_1.1" depart="94.70" departLane="140483224#1_2" departPos="5.10" departPosLat="0.00" departSpeed="19.69" departDelay="0.00" arrival="162.50" arrivalLane="-440471861#0_2" arrivalPos="31.52" arrivalPosLat="0.00" arrivalSpeed="29.83" duration="67.80" routeLength="1067.97" waitingTime="12.80" waitingCount="2" stopTime="0.00" timeLoss="30.64" rerouteNo="1" devices="tripinfo_D3_1.1 routing_D3_1.1" vType="car" speedFactor="1.08" vaporized=""/>
    <tripinfo id="D3_1.2" depart="121.80" departLane="140483224#1_1" departPos="7.20" departPosLat="0.00" departSpeed="27.42" departDelay="0.00" arrival="170.00" arrivalLane="-440471861#0_2" arrivalPos="31.52" arrivalPosLat="0.00" arrivalSpeed="27.38" duration="48.20" routeLength="1065.87" waitingTime="0.00" waitingCount="0" stopTime="0.00" timeLoss="7.73" rerouteNo="1" devices="tripinfo_D3_1.2 routing_D3_1.2" vType="truck" speedFactor="0.99" vaporized=""/>
    <tripinfo id="D1_1.3" depart="92.30" departLane="140483224#1_1" departPos="5.10" departPosLat="0.00" departSpeed="27.97" departDelay="0.00" arrival="170.10" arrivalLane="-793339796#2_2" arrivalPos="82.50" arrivalPosLat="0.00" arrivalSpeed="27.87" duration="77.80" routeLength="1648.38" waitingTime="0.00" waitingCount="0" stopTime="0.00" timeLoss="16.63" rerouteNo="1" devices="tripinfo_D1_1.3 routing_D1_1.3" vType="car" speedFactor="1.01" vaporized=""/>
    <personinfo id="pf_4.4" depart="60.00" type="ped" speedFactor="1.05" duration="116.60" waitingTime="3.30" timeLoss="14.53" traveltime="116.60">
        <walk depart="60.00" departPos="25.00" arrival="116.50" arrivalPos="29.11" duration="56.50" routeLength="72.15" timeLoss="6.86" maxSpeed="1.45" waitingTime="1.50"/>
        <walk depart="116.50" departPos="29.11" arrival="176.60" arrivalPos="29.05" duration="60.10" routeLength="76.20" timeLoss="7.67" maxSpeed="1.45" waitingTime="1.80"/>
    </personinfo>
    <tripinfo id="A2_1.8" depart="68.60" departLane="-793339796#2_1" departPos="5.10" departPosLat="0.00" departSpeed="27.81" departDelay="14.50" arrival="177.50" arrivalLane="-440471861#0_2" arrivalPos="31.52" arrivalPosLat="0.00" arrivalSpeed="27.77" duration="108.90" routeLength="1081.27" waitingTime="45.20" waitingCount="6" stopTime="0.00" timeLoss="69.94" rerouteNo="1" devices="tripinfo_A2_1.8 routing_A2_1.8" vType="car" speedFactor="1.00" vaporized=""/>
    <tripinfo id="A2_1.7" depart="48.40" departLane="-793339796#2_2" departPos="5.10" departPosLat="0.00" departSpeed="21.17" departDelay="0.00" arrival="178.30" arrivalLane="-440471861#0_1" arrivalPos="31.52" arrivalPosLat="-0.00" arrivalSpeed="21.12" duration="129.90" routeLength="1081.27" waitingTime="58.40" waitingCount="3" stopTime="0.00" timeLoss="78.77" rerouteNo="1" devices="tripinfo_A2_1.7 routing_A2_1.7" vType="car" speedFactor="0.76" vaporized=""/>
    <tripinfo id="C2_1.1" depart="54.60" departLane="440471861#0_2" departPos="5.10" departPosLat="0.00" departSpeed="27.21" departDelay="0.00" arrival="178.70" arrivalLane="-145894807#0_1" arrivalPos="260.95" arrivalPosLat="0.00" arrivalSpeed="8.08" duration="124.10" routeLength="1082.06" waitingTime="29.80" waitingCount="1" stopTime="0.00" timeLoss="37.03" rerouteNo="1" devices="tripinfo_C2_1.1 routing_C2_1.1" vType="car" speedFactor="0.98" vaporized=""/>
    <tripinfo id="C1_1.3" depart="56.20" departLane="440471861#0_1" departPos="8.10" departPosLat="0.00" departSpeed="27.78" departDelay="0.00" arrival="180.00" arrivalLane="-793339796#2_2" arrivalPos="82.50" arrivalPosLat="0.00" arrivalSpeed="24.66" duration="123.80" routeLength="1650.99" waitingTime="22.70" waitingCount="1" stopTime="0.00" timeLoss="63.33" rerouteNo="1" devices="tripinfo_C1_1.3 routing_C1_1.3" vType="jeep" speedFactor="1.00" vaporized=""/>
    <personinfo id="pf_4.5" depart="75.00" type="ped" speedFactor="1.12" duration="105.40" waitingTime="0.00" timeLoss="10.41" traveltime="105.40">
        <walk depart="75.00" departPos="25.00" arrival="126.30" arrivalPos="29.11" duration="51.30" routeLength="72.15" timeLoss="5.10" maxSpeed="1.56" waitingTime="0.00"/>
        <walk depart="126.30" departPos="29.11" arrival="180.40" arrivalPos="29.05" duration="54.10" routeLength="76.20" timeLoss="5.31" maxSpeed="1.56" waitingTime="0.00"/>
    </personinfo>
    <tripinfo id="A3_1.2" depart="68.60" departLane="-793339796#2_2" departPos="7.20" departPosLat="0.00" departSpeed="24.90" departDelay="7.60" arrival="181.60" arrivalLane="-140483224#1_2" arrivalPos="64.04" arrivalPosLat="0.00" arrivalSpeed="24.89" duration="113.00" routeLength="1078.84" waitingTime="42.20" waitingCount="2" stopTime="0.00" timeLoss="67.95" rerouteNo="1" devices="tripinfo_A3_1.2 routing_A3_1.2" vType="truck" speedFactor="0.90" vaporized=""/>
    <tripinfo id="C1_1.4" depart="57.10" departLane="440471861#0_1" departPos="8.10" departPosLat="0.00" departSpeed="26.01" departDelay="0.00" arrival="183.90" arrivalLane="-793339796#2_2" arrivalPos="82.50" arrivalPosLat="0.00" arrivalSpeed="24.55" duration="126.80" routeLength="1650.99" waitingTime="20.70" waitingCount="1" stopTime="0.00" timeLoss="66.24" rerouteNo="1" devices="tripinfo_C1_1.4 routing_C1_1.4" vType="jeep" speedFactor="1.00" vaporized=""/>
    <tripinfo id="B2_1.1" depart="62.00" departLane="-361257727#0_1" departPos="5.10" departPosLat="0.00" departSpeed="8.32" departDelay="0.00" arrival="184.80" arrivalLane="-440471861#0_1" arrivalPos="31.52" arrivalPosLat="-0.00" arrivalSpeed="27.66" duration="122.80" routeLength="1397.68" waitingTime="0.00" waitingCount="0" stopTime="0.00" timeLoss="5.63" rerouteNo="1" devices="tripinfo_B2_1.1 routing_B2_1.1" vType="car" speedFactor="1.00" vaporized=""/>
    <tripinfo id="C1_1.5" depart="63.70" departLane="440471861#0_1" departPos="5.10" departPosLat="0.00" departSpeed="28.30" departDelay="0.00" arrival="185.20" arrivalLane="-793339796#2_2" arrivalPos="82.50" arrivalPosLat="0.00" arrivalSpeed="26.36" duration="121.50" routeLength="1653.99" waitingTime="18.00" waitingCount="1" stopTime="0.00" timeLoss="61.88" rerouteNo="1" devices="tripinfo_C1_1.5 routing_C1_1.5" vType="car" speedFactor="1.02" vaporized=""/>
    <tripinfo id="D1_1.4" depart="112.20" departLane="140483224#1_1" departPos="5.10" departPosLat="0.00" departSpeed="27.94" departDelay="0.00" arrival="190.10" arrivalLane="-793339796#2_2" arrivalPos="82.50" arrivalPosLat="0.00" arrivalSpeed="27.84" duration="77.90" routeLength="1648.38" waitingTime="0.00" waitingCount="0" stopTime="0.00" timeLoss="16.49" rerouteNo="1" devices="tripinfo_D1_1.4 routing_D1_1.4" vType="car" speedFactor="1.01" vaporized=""/>
    <personinfo id="pf_2.9" depart="135.00" type="ped" speedFactor="1.17" duration="56.50" waitingTime="35.50" timeLoss="37.62" traveltime="56.50">
        <walk depart="135.00" departPos="15.09" arrival="191.50" arrivalPos="3.44" duration="56.50" routeLength="30.72" timeLoss="37.62" maxSpeed="1.63" waitingTime="35.50"/>
    </personinfo>
    <personinfo id="pf_2.11" depart="165.00" type="ped" speedFactor="1.02" duration="28.70" waitingTime="4.50" timeLoss="7.01" traveltime="28.70">
        <walk depart="165.00" departPos="15.09" arrival="193.70" arrivalPos="3.44" duration="28.70" routeLength="30.72" timeLoss="7.01" maxSpeed="1.42" waitingTime="4.50"/>
    </personinfo>
    <personinfo id="pf_2.10" depart="150.00" type="ped" speedFactor="0.99" duration="44.00" waitingTime="19.30" timeLoss="21.76" traveltime="44.00">
        <walk depart="150.00" departPos="15.09" arrival="194.00" arrivalPos="3.44" duration="44.00" routeLength="30.72" timeLoss="21.76" maxSpeed="1.38" waitingTime="19.30"/>
    </personinfo>
    <tripinfo id="D1_1.5" depart="117.10" departLane="140483224#1_1" departPos="5.10" departPosLat="0.00" departSpeed="27.34" departDelay="0.00" arrival="194.60" arrivalLane="-793339796#2_2" arrivalPos="82.50" arrivalPosLat="0.00" arrivalSpeed="27.25" duration="77.50" routeLength="1648.38" waitingTime="0.00" waitingCount="0" stopTime="0.00" timeLoss="14.78" rerouteNo="1" devices="tripinfo_D1_1.5 routing_D1_1.5" vType="car" speedFactor="0.98" vaporized=""/>
    <tripinfo id="D2_1.3" depart="93.70" departLane="140483224#1_2" departPos="2.30" departPosLat="0.00" departSpeed="28.96" departDelay="0.00" arrival="195.00" arrivalLane="-145894807#0_1" arrivalPos="260.95" arrivalPosLat="-0.00" arrivalSpeed="8.58" duration="101.30" routeLength="1095.56" waitingTime="12.00" waitingCount="1" stopTime="0.00" timeLoss="19.30" rerouteNo="1" devices="tripinfo_D2_1.3 routing_D2_1.3" vType="tricycle" speedFactor="1.04" vaporized=""/>
    <tripinfo id="A1_1.0" depart="107.00" departLane="-793339796#2_1" departPos="8.10" departPosLat="0.00" departSpeed="27.78" departDelay="23.00" arrival="200.90" arrivalLane="-145894807#0_1" arrivalPos="260.95" arrivalPosLat="0.00" arrivalSpeed="8.29" duration="93.90" routeLength="1053.72" waitingTime="0.00" waitingCount="0" stopTime="0.00" timeLoss="4.47" rerouteNo="1" devices="tripinfo_A1_1.0 routing_A1_1.0" vType="jeep" speedFactor="1.00" vaporized=""/>
    <tripinfo id="C3_1.4" depart="51.90" departLane="440471861#0_1" departPos="5.10" departPosLat="0.00" departSpeed="29.67" departDelay="0.00" arrival="202.00" arrivalLane="-140483224#1_2" arrivalPos="64.04" arrivalPosLat="0.00" arrivalSpeed="29.59" duration="150.10" routeLength="1052.78" waitingTime="84.60" waitingCount="3" stopTime="0.00" timeLoss="113.36" rerouteNo="1" devices="tripinfo_C3_1.4 routing_C3_1.4" vType="car" speedFactor="1.07" vaporized=""/>
    <tripinfo id="C1_1.6" depart="82.10" departLane="440471861#0_1" departPos="7.20" departPosLat="0.00" departSpeed="27.04" departDelay="0.00" arrival="205.50" arrivalLane="-793339796#2_1" arrivalPos="82.50" arrivalPosLat="-0.00" arrivalSpeed="25.48" duration="123.40" routeLength="1651.89" waitingTime="14.00" waitingCount="2" stopTime="0.00" timeLoss="61.04" rerouteNo="1" devices="tripinfo_C1_1.6 routing_C1_1.6" vType="truck" speedFactor="0.97" vaporized=""/>
    <tripinfo id="C3_1.5" depart="54.60" departLane="440471861#0_1" departPos="7.20" departPosLat="0.00" departSpeed="28.29" departDelay="0.00" arrival="207.20" arrivalLane="-140483224#1_1" arrivalPos="64.04" arrivalPosLat="0.00" arrivalSpeed="28.28" duration="152.60" routeLength="1050.68" waitingTime="77.00" waitingCount="2" stopTime="0.00" timeLoss="114.17" rerouteNo="1" devices="tripinfo_C3_1.5 routing_C3_1.5" vType="truck" speedFactor="1.02" vaporized=""/>
    <personinfo id="pf_4.6" depart="90.00" type="ped" speedFactor="1.01" duration="121.40" waitingTime="3.40" timeLoss="15.18" traveltime="121.40">
        <walk depart="90.00" departPos="25.00" arrival="147.40" arrivalPos="29.11" duration="57.40" routeLength="72.15" timeLoss="5.74" maxSpeed="1.40" waitingTime="0.00"/>
        <walk depart="147.40" departPos="29.11" arrival="211.40" arrivalPos="29.05" duration="64.00" routeLength="76.20" timeLoss="9.44" maxSpeed="1.40" waitingTime="3.40"/>
    </personinfo>
    <tripinfo id="D1_1.6" depart="124.30" departLane="140483224#1_1" departPos="8.10" departPosLat="0.00" departSpeed="27.78" departDelay="0.00" arrival="211.70" arrivalLane="-793339796#2_2" arrivalPos="82.50" arrivalPosLat="0.00" arrivalSpeed="24.85" duration="87.40" routeLength="1645.38" waitingTime="0.00" waitingCount="0" stopTime="0.00" timeLoss="25.92" rerouteNo="1" devices="tripinfo_D1_1.6 routing_D1_1.6" vType="jeep" speedFactor="1.00" vaporized=""/>
    <tripinfo id="D1_1.7" depart="131.00" departLane="140483224#1_1" departPos="2.30" departPosLat="0.00" departSpeed="26.43" departDelay="0.00" arrival="213.10" arrivalLane="-793339796#2_2" arrivalPos="82.50" arrivalPosLat="0.00" arrivalSpeed="26.13" duration="82.10" routeLength="1651.18" waitingTime="0.00" waitingCount="0" stopTime="0.00" timeLoss="17.05" rerouteNo="1" devices="tripinfo_D1_1.7 routing_D1_1.7" vType="tricycle" speedFactor="0.95" vaporized=""/>
    <tripinfo id="C1_1.7" depart="125.70" departLane="440471861#0_2" departPos="5.10" departPosLat="0.00" departSpeed="24.06" departDelay="0.00" arrival="221.00" arrivalLane="-793339796#2_2" arrivalPos="82.50" arrivalPosLat="0.00" arrivalSpeed="23.97" duration="95.30" routeLength="1653.99" waitingTime="7.50" waitingCount="1" stopTime="0.00" timeLoss="25.24" rerouteNo="1" devices="tripinfo_C1_1.7 routing_C1_1.7" vType="car" speedFactor="0.87" vaporized=""/>