<?xml version="1.0" encoding="UTF-8"?>

<!-- generated on 2025-11-18 14:14:25 by Eclipse SUMO sumo Version 1.24.0
<sumoConfiguration xmlns:xsi="http://www.w3.org/2001/XMLSchema-instance" xsi:noNamespaceSchemaLocation="http://sumo.dlr.de/xsd/sumoConfiguration.xsd">

    <input>
        <net-file value="Olivarez_traci\network/map.net.xml"/>
        <route-files value="Olivarez_traci\demand\flows_normal_traffic.rou.xml"/>
        <additional-files value="Olivarez_traci\additionals/map.poly.xml,Olivarez_traci\ additionals/detectors.add.xml"/>
    </input>

    <output>
        <tripinfo-output value="Olivarez_traci\output_A2C\SP_A2C_Normal_trips.xml"/>
        <statistic-output value="Olivarez_traci\output_A2C\SP_A2C_Normal_stats.xml"/>
    </output>

    <time>
        <begin value="0"/>
        <end value="10800"/>
        <step-length value="0.1"/>
    </time>

    <processing>
        <lateral-resolution value="0.1"/>
        <collision.action value="none"/>
        <collision.check-junctions value="false"/>
        <collision.mingap-factor value="0"/>
    </processing>

    <report>
        <no-warnings value="true"/>
    </report>

    <traci_server>
        <remote-port value="60998"/>
    </traci_server>

    <gui_only>
        <delay value="0"/>
    </gui_only>

</sumoConfiguration>
-->

<tripinfos xmlns:xsi="http://www.w3.org/2001/XMLSchema-instance" xsi:noNamespaceSchemaLocation="http://sumo.dlr.de/xsd/tripinfo_file.xsd">
    <personinfo id="pf_2.0" depart="0.00" type="ped" speedFactor="1.06" duration="49.90" waitingTime="27.00" timeLoss="29.39" traveltime="49.90">
        <walk depart="0.00" departPos="15.72" arrival="49.90" arrivalPos="4.00" duration="49.90" routeLength="30.33" timeLoss="29.39" maxSpeed="1.48" waitingTime="27.00"/>
    </personinfo>
    <tripinfo id="A2_1.0" depart="8.90" departLane="-793339796#2_1" departPos="5.10" departPosLat="0.00" departSpeed="23.90" departDelay="0.00" arrival="63.80" arrivalLane="-440471861#0_1" arrivalPos="31.49" arrivalPosLat="0.00" arrivalSpeed="23.77" duration="54.90" routeLength="1081.89" waitingTime="1.00" waitingCount="1" stopTime="0.00" timeLoss="9.54" rerouteNo="1" devices="tripinfo_A2_1.0 routing_A2_1.0" vType="car" speedFactor="0.86" vaporized=""/>
    <personinfo id="pf_2.1" depart="36.00" type="ped" speedFactor="0.96" duration="35.90" waitingTime="10.50" timeLoss="13.07" traveltime="35.90">
        <walk depart="36.00" departPos="15.72" arrival="71.90" arrivalPos="4.00" duration="35.90" routeLength="30.33" timeLoss="13.07" maxSpeed="1.33" waitingTime="10.50"/>
    </personinfo>
    <tripinfo id="D1_1.0" depart="1.20" departLane="140483224#1_1" departPos="5.10" departPosLat="0.00" departSpeed="27.72" departDelay="0.00" arrival="76.10" arrivalLane="-793339796#2_2" arrivalPos="83.13" arrivalPosLat="0.00" arrivalSpeed="27.65" duration="74.90" routeLength="1648.45" waitingTime="0.00" waitingCount="0" stopTime="0.00" timeLoss="13.10" rerouteNo="1" devices="tripinfo_D1_1.0 routing_D1_1.0" vType="car" speedFactor="1.00" vaporized=""/>
    <tripinfo id="C3_1.0" depart="22.80" departLane="440471861#0_1" departPos="2.30" departPosLat="0.00" departSpeed="30.91" departDelay="0.00" arrival="96.70" arrivalLane="-140483224#1_1" arrivalPos="64.17" arrivalPosLat="0.00" arrivalSpeed="30.70" duration="73.90" routeLength="1056.73" waitingTime="34.20" waitingCount="1" stopTime="0.00" timeLoss="38.69" rerouteNo="1" devices="tripinfo_C3_1.0 routing_C3_1.0" vType="motorcycle" speedFactor="1.11" vaporized=""/>
    <personinfo id="pf_2.2" depart="72.00" type="ped" speedFactor="0.97" duration="40.00" waitingTime="15.00" timeLoss="17.44" traveltime="40.00">
        <walk depart="72.00" departPos="15.72" arrival="112.00" arrivalPos="4.00" duration="40.00" routeLength="30.33" timeLoss="17.44" maxSpeed="1.34" waitingTime="15.00"/>
    </personinfo>
    <tripinfo id="D3_1.0" depart="15.30" departLane="140483224#1_1" departPos="12.10" departPosLat="0.00" departSpeed="27.78" departDelay="0.00" arrival="130.80" arrivalLane="-440471861#0_2" arrivalPos="31.49" arrivalPosLat="0.00" arrivalSpeed="27.76" duration="115.50" routeLength="1062.09" waitingTime="58.20" waitingCount="1" stopTime="0.00" timeLoss="75.81" rerouteNo="1" devices="tripinfo_D3_1.0 routing_D3_1.0" vType="bus" speedFactor="1.00" vaporized=""/>
    <tripinfo id="C2_1.0" depart="40.30" departLane="440471861#0_2" departPos="5.10" departPosLat="0.00" departSpeed="38.00" departDelay="0.00" arrival="130.90" arrivalLane="-145894807#0_1" arrivalPos="260.97" arrivalPosLat="0.00" arrivalSpeed="11.31" duration="90.60" routeLength="1099.91" waitingTime="17.30" waitingCount="1" stopTime="0.00" timeLoss="26.66" rerouteNo="1" devices="tripinfo_C2_1.0 routing_C2_1.0" vType="car" speedFactor="1.37" vaporized=""/>
    <tripinfo id="C1_1.0" depart="35.30" departLane="440471861#0_1" departPos="5.10" departPosLat="0.00" departSpeed="26.89" departDelay="0.00" arrival="133.20" arrivalLane="-793339796#2_2" arrivalPos="83.13" arrivalPosLat="0.00" arrivalSpeed="26.86" duration="97.90" routeLength="1654.03" waitingTime="15.30" waitingCount="1" stopTime="0.00" timeLoss="35.22" rerouteNo="1" devices="tripinfo_C1_1.0 routing_C1_1.0" vType="car" speedFactor="0.97" vaporized=""/>
    <tripinfo id="C1_1.1" depart="63.70" departLane="440471861#0_1" departPos="5.10" departPosLat="0.00" departSpeed="26.59" departDelay="0.00" arrival="137.00" arrivalLane="-793339796#2_2" arrivalPos="83.13" arrivalPosLat="0.00" arrivalSpeed="26.59" duration="73.30" routeLength="1654.03" waitingTime="0.00" waitingCount="0" stopTime="0.00" timeLoss="9.98" rerouteNo="1" devices="tripinfo_C1_1.1 routing_C1_1.1" vType="car" speedFactor="0.96" vaporized=""/>
    <tripinfo id="A2_1.1" depart="16.40" departLane="-793339796#2_1" departPos="5.10" departPosLat="0.00" departSpeed="27.59" departDelay="0.00" arrival="142.70" arrivalLane="-440471861#0_1" arrivalPos="31.49" arrivalPosLat="-0.00" arrivalSpeed="27.53" duration="126.30" routeLength="1081.89" waitingTime="70.90" waitingCount="2" stopTime="0.00" timeLoss="87.03" rerouteNo="1" devices="tripinfo_A2_1.1 routing_A2_1.1" vType="car" speedFactor="0.99" vaporized=""/>
    <personinfo id="pf_2.3" depart="108.00" type="ped" speedFactor="0.95" duration="34.90" waitingTime="9.20" timeLoss="11.97" traveltime="34.90">
        <walk depart="108.00" departPos="15.72" arrival="142.90" arrivalPos="4.00" duration="34.90" routeLength="30.33" timeLoss="11.97" maxSpeed="1.32" waitingTime="9.20"/>
    </personinfo>
    <tripinfo id="D1_1.1" depart="74.50" departLane="140483224#1_1" departPos="2.30" departPosLat="0.00" departSpeed="31.28" departDelay="0.00" arrival="158.60" arrivalLane="-793339796#2_2" arrivalPos="83.13" arrivalPosLat="0.00" arrivalSpeed="31.21" duration="84.10" routeLength="1651.25" waitingTime="16.70" waitingCount="2" stopTime="0.00" timeLoss="29.26" rerouteNo="1" devices="tripinfo_D1_1.1 routing_D1_1.1" vType="motorcycle" speedFactor="1.13" vaporized=""/>
    <personinfo id="pf_2.4" depart="144.00" type="ped" speedFactor="0.89" duration="30.40" waitingTime="3.10" timeLoss="5.97" traveltime="30.40">
        <walk depart="144.00" departPos="15.72" arrival="174.40" arrivalPos="4.00" duration="30.40" routeLength="30.33" timeLoss="5.97" maxSpeed="1.24" waitingTime="3.10"/>
    </personinfo>
    <tripinfo id="C3_1.2" depart="156.50" departLane="440471861#0_1" departPos="5.10" departPosLat="0.00" departSpeed="29.12" departDelay="0.00" arrival="201.90" arrivalLane="-140483224#1_2" arrivalPos="64.17" arrivalPosLat="0.00" arrivalSpeed="29.03" duration="45.40" routeLength="1053.93" waitingTime="0.00" waitingCount="0" stopTime="0.00" timeLoss="8.02" rerouteNo="1" devices="tripinfo_C3_1.2 routing_C3_1.2" vType="car" speedFactor="1.05" vaporized=""/>
    <tripinfo id="C3_1.1" depart="87.10" departLane="440471861#0_1" departPos="5.10" departPosLat="0.00" departSpeed="24.05" departDelay="0.00" arrival="203.30" arrivalLane="-140483224#1_1" arrivalPos="64.17" arrivalPosLat="-0.00" arrivalSpeed="24.03" duration="116.20" routeLength="1053.93" waitingTime="52.30" waitingCount="2" stopTime="0.00" timeLoss="71.04" rerouteNo="1" devices="tripinfo_C3_1.1 routing_C3_1.1" vType="car" speedFactor="0.87" vaporized=""/>
    <personinfo id="pf_2.5" depart="180.00" type="ped" speedFactor="1.07" duration="31.70" waitingTime="9.10" timeLoss="11.34" traveltime="31.70">
        <walk depart="180.00" departPos="15.72" arrival="211.70" arrivalPos="4.00" duration="31.70" routeLength="30.33" timeLoss="11.34" maxSpeed="1.49" waitingTime="9.10"/>
    </personinfo>
    <tripinfo id="B1_1.0" depart="75.60" departLane="-361257727#0_1" departPos="2.30" departPosLat="0.00" departSpeed="8.63" departDelay="0.00" arrival="213.30" arrivalLane="-793339796#2_2" arrivalPos="83.13" arrivalPosLat="0.00" arrivalSpeed="28.77" duration="137.70" routeLength="1918.42" waitingTime="0.00" waitingCount="0" stopTime="0.00" timeLoss="7.43" rerouteNo="1" devices="tripinfo_B1_1.0 routing_B1_1.0" vType="motorcycle" speedFactor="1.04" vaporized=""/>
    <tripinfo id="A2_1.2" depart="125.80" departLane="-793339796#2_1" departPos="5.10" departPosLat="0.00" departSpeed="30.46" departDelay="0.00" arrival="222.50" arrivalLane="-440471861#0_1" arrivalPos="31.49" arrivalPosLat="0.00" arrivalSpeed="30.46" duration="96.70" routeLength="1081.89" waitingTime="50.20" waitingCount="1" stopTime="0.00" timeLoss="61.09" rerouteNo="1" devices="tripinfo_A2_1.2 routing_A2_1.2" vType="car" speedFactor="1.10" vaporized=""/>
    <tripinfo id="A3_1.0" depart="127.10" departLane="-793339796#2_2" departPos="2.30" departPosLat="0.00" departSpeed="29.09" departDelay="0.00" arrival="229.00" arrivalLane="-140483224#1_2" arrivalPos="64.17" arrivalPosLat="0.00" arrivalSpeed="29.06" duration="101.90" routeLength="1084.51" waitingTime="55.60" waitingCount="2" stopTime="0.00" timeLoss="63.13" rerouteNo="1" devices="tripinfo_A3_1.0 routing_A3_1.0" vType="motorcycle" speedFactor="1.05" vaporized=""/>
    <tripinfo id="C1_1.2" depart="82.10" departLane="440471861#0_1" departPos="5.10" departPosLat="0.00" departSpeed="28.72" departDelay="0.00" arrival="230.60" arrivalLane="-793339796#2_2" arrivalPos="83.13" arrivalPosLat="0.00" arrivalSpeed="28.70" duration="148.50" routeLength="1654.03" waitingTime="64.30" waitingCount="2" stopTime="0.00" timeLoss="89.81" rerouteNo="1" devices="tripinfo_C1_1.2 routing_C1_1.2" vType="car" speedFactor="1.03" vaporized=""/>
    <tripinfo id="A2_1.3" depart="142.40" departLane="-793339796#2_1" departPos="8.10" departPosLat="0.00" departSpeed="27.78" departDelay="12.50" arrival="232.50" arrivalLane="-440471861#0_1" arrivalPos="31.49" arrivalPosLat="0.00" arrivalSpeed="27.78" duration="90.10" routeLength="1078.89" waitingTime="21.50" waitingCount="2" stopTime="0.00" timeLoss="51.19" rerouteNo="1" devices="tripinfo_A2_1.3 routing_A2_1.3" vType="jeep" speedFactor="1.00" vaporized=""/>
    <personinfo id="pf_2.6" depart="216.00" type="ped" speedFactor="1.01" duration="23.90" waitingTime="0.00" timeLoss="2.36" traveltime="23.90">
        <walk depart="216.00" departPos="15.72" arrival="239.90" arrivalPos="4.00" duration="23.90" routeLength="30.33" timeLoss="2.36" maxSpeed="1.41" waitingTime="0.00"/>
    </personinfo>
    <tripinfo id="C1_1.3" depart="142.00" departLane="440471861#0_1" departPos="8.10" departPosLat="0.00" departSpeed="27.78" departDelay="0.00" arrival="246.10" arrivalLane="-793339796#2_2" arrivalPos="83.13" arrivalPosLat="0.00" arrivalSpeed="24.40" duration="104.10" routeLength="1651.03" waitingTime="9.30" waitingCount="1" stopTime="0.00" timeLoss="43.58" rerouteNo="1" devices="tripinfo_C1_1.3 routing_C1_1.3" vType="jeep" speedFactor="1.00" vaporized=""/>
    <tripinfo id="D1_1.2" depart="92.30" departLane="140483224#1_1" departPos="7.20" departPosLat="0.00" departSpeed="27.33" departDelay="0.00" arrival="249.50" arrivalLane="-793339796#2_2" arrivalPos="83.13" arrivalPosLat="0.00" arrivalSpeed="25.39" duration="157.20" routeLength="1646.35" waitingTime="54.10" waitingCount="2" stopTime="0.00" timeLoss="94.54" rerouteNo="1" devices="tripinfo_D1_1.2 routing_D1_1.2" vType="truck" speedFactor="0.98" vaporized=""/>
    <tripinfo id="B2_1.0" depart="62.00" departLane="-361257727#0_1" departPos="7.20" departPosLat="0.00" departSpeed="8.62" departDelay="0.00" arrival="250.70" arrivalLane="-440471861#0_2" arrivalPos="31.49" arrivalPosLat="0.00" arrivalSpeed="28.71" duration="188.70" routeLength="1412.19" waitingTime="55.10" waitingCount="1" stopTime="0.00" timeLoss="73.95" rerouteNo="1" devices="tripinfo_B2_1.0 routing_B2_1.0" vType="truck" speedFactor="1.04" vaporized=""/>
    <tripinfo id="D1_1.3" depart="117.10" departLane="140483224#1_1" departPos="5.10" departPosLat="0.00" departSpeed="27.95" departDelay="0.00" arrival="250.70" arrivalLane="-793339796#2_2" arrivalPos="83.13" arrivalPosLat="0.00" arrivalSpeed="27.04" duration="133.60" routeLength="1648.45" waitingTime="39.00" waitingCount="1" stopTime="0.00" timeLoss="72.23" rerouteNo="1" devices="tripinfo_D1_1.3 routing_D1_1.3" vType="car" speedFactor="1.01" vaporized=""/>
    <tripinfo id="A1_1.0" depart="157.90" departLane="-793339796#2_1" departPos="5.10" departPosLat="0.00" departSpeed="27.67" departDelay="0.00" arrival="251.70" arrivalLane="-145894807#0_1" arrivalPos="260.97" arrivalPosLat="0.00" arrivalSpeed="8.19" duration="93.80" routeLength="1057.45" waitingTime="0.00" waitingCount="0" stopTime="0.00" timeLoss="3.90" rerouteNo="1" devices="tripinfo_A1_1.0 routing_A1_1.0" vType="car" speedFactor="1.00" vaporized=""/>
    <tripinfo id="D2_1.0" depart="93.70" departLane="140483224#1_1" departPos="8.10" departPosLat="0.00" departSpeed="27.33" departDelay="0.00" arrival="254.30" arrivalLane="-145894807#0_1" arrivalPos="260.97" arrivalPosLat="0.00" arrivalSpeed="8.28" duration="160.60" routeLength="1106.85" waitingTime="52.10" waitingCount="1" stopTime="0.00" timeLoss="73.30" rerouteNo="1" devices="tripinfo_D2_1.0 routing_D2_1.0" vType="jeep" speedFactor="1.00" vaporized=""/>
    <tripinfo id="D2_1.1" depart="134.80" departLane="140483224#1_1" departPos="8.10" departPosLat="0.00" departSpeed="27.78" departDelay="0.00" arrival="261.60" arrivalLane="-145894807#0_1" arrivalPos="260.97" arrivalPosLat="0.00" arrivalSpeed="8.32" duration="126.80" routeLength="1106.85" waitingTime="18.40" waitingCount="2" stopTime="0.00" timeLoss="39.53" rerouteNo="1" devices="tripinfo_D2_1.1 routing_D2_1.1" vType="jeep" speedFactor="1.00" vaporized=""/>
    <tripinfo id="A3_1.1" depart="193.40" departLane="-793339796#2_2" departPos="8.10" departPosLat="0.00" departSpeed="27.78" departDelay="0.00" arrival="270.80" arrivalLane="-140483224#1_1" arrivalPos="64.17" arrivalPosLat="-0.00" arrivalSpeed="27.77" duration="77.40" routeLength="1078.71" waitingTime="17.40" waitingCount="1" stopTime="0.00" timeLoss="36.98" rerouteNo="1" devices="tripinfo_A3_1.1 routing_A3_1.1" vType="jeep" speedFactor="1.00" vaporized=""/>
    <tripinfo id="C3_1.3" depart="208.00" departLane="440471861#0_1" departPos="7.20" departPosLat="0.00" departSpeed="26.77" departDelay="0.00" arrival="272.10" arrivalLane="-140483224#1_1" arrivalPos="64.17" arrivalPosLat="-0.00" arrivalSpeed="26.72" duration="64.10" routeLength="1051.83" waitingTime="6.80" waitingCount="1" stopTime="0.00" timeLoss="23.65" rerouteNo="1" devices="tripinfo_C3_1.3 routing_C3_1.3" vType="truck" speedFactor="0.96" vaporized=""/>
    <personinfo id="pf_1.0" depart="0.00" type="ped" speedFactor="1.06" duration="272.80" waitingTime="24.60" timeLoss="49.89" traveltime="272.80">
        <walk depart="0.00" departPos="25.00" arrival="272.80" arrivalPos="4.00" duration="272.80" routeLength="328.17" timeLoss="49.89" maxSpeed="1.47" waitingTime="24.60"/>
    </personinfo>
    <personinfo id="pf_2.7" depart="252.00" type="ped" speedFactor="1.03" duration="23.50" waitingTime="0.00" timeLoss="2.39" traveltime="23.50">
        <walk depart="252.00" departPos="15.72" arrival="275.50" arrivalPos="4.00" duration="23.50" routeLength="30.33" timeLoss="2.39" maxSpeed="1.44" waitingTime="0.00"/>
    </personinfo>
    <tripinfo id="D3_1.1" depart="201.70" departLane="140483224#1_2" departPos="5.10" departPosLat="0.00" departSpeed="32.43" departDelay="0.00" arrival="282.80" arrivalLane="-440471861#0_2" arrivalPos="31.49" arrivalPosLat="0.00" arrivalSpeed="32.38" duration="81.10" routeLength="1069.09" waitingTime="30.30" waitingCount="2" stopTime="0.00" timeLoss="46.82" rerouteNo="1" devices="tripinfo_D3_1.1 routing_D3_1.1" vType="car" speedFactor="1.17" vaporized=""/>
    <tripinfo id="D3_1.2" depart="206.80" departLane="140483224#1_2" departPos="5.10" departPosLat="0.00" departSpeed="24.00" departDelay="0.00" arrival="288.40" arrivalLane="-440471861#0_2" arrivalPos="31.49" arrivalPosLat="0.00" arrivalSpeed="23.98" duration="81.60" routeLength="1069.09" waitingTime="13.60" waitingCount="2" stopTime="0.00" timeLoss="35.40" rerouteNo="1" devices="tripinfo_D3_1.2 routing_D3_1.2" vType="car" speedFactor="0.86" vaporized=""/>
    <tripinfo id="D3_1.3" depart="212.70" departLane="140483224#1_1" departPos="2.30" departPosLat="0.00" departSpeed="21.47" departDelay="0.00" arrival="291.70" arrivalLane="-440471861#0_2" arrivalPos="31.49" arrivalPosLat="0.00" arrivalSpeed="21.28" duration="79.00" routeLength="1071.89" waitingTime="11.70" waitingCount="1" stopTime="0.00" timeLoss="27.13" rerouteNo="1" devices="tripinfo_D3_1.3 routing_D3_1.3" vType="motorcycle" speedFactor="0.77" vaporized=""/>
    <tripinfo id="C1_1.4" depart="227.40" departLane="440471861#0_1" departPos="7.20" departPosLat="0.00" departSpeed="28.00" departDelay="0.00" arrival="300.90" arrivalLane="-793339796#2_2" arrivalPos="83.13" arrivalPosLat="0.00" arrivalSpeed="25.44" duration="73.50" routeLength="1651.93" waitingTime="0.00" waitingCount="0" stopTime="0.00" timeLoss="13.44" rerouteNo="1" devices="tripinfo_C1_1.4 routing_C1_1.4" vType="truck" speedFactor="1.01" vaporized=""/>
    <tripinfo id="A3_1.3" depart="222.10" departLane="-793339796#2_2" departPos="5.10" departPosLat="0.00" departSpeed="28.62" departDelay="0.00" arrival="323.00" arrivalLane="-140483224#1_1" arrivalPos="64.17" arrivalPosLat="-0.00" arrivalSpeed="28.56" duration="100.90" routeLength="1081.71" waitingTime="30.70" waitingCount="2" stopTime="0.00" timeLoss="61.68" rerouteNo="1" devices="tripinfo_A3_1.3 routing_A3_1.3" vType="car" speedFactor="1.03" vaporized=""/>
    <tripinfo id="A3_1.4" depart="228.10" departLane="-793339796#2_2" departPos="5.10" departPosLat="0.00" departSpeed="24.33" departDelay="0.50" arrival="326.00" arrivalLane="-140483224#1_1" arrivalPos="64.17" arrivalPosLat="-0.00" arrivalSpeed="24.26" duration="97.90" routeLength="1081.71" waitingTime="24.80" waitingCount="2" stopTime="0.00" timeLoss="51.70" rerouteNo="1" devices="tripinfo_A3_1.4 routing_A3_1.4" vType="car" speedFactor="0.88" vaporized=""/>
    <tripinfo id="B2_1.1" depart="129.20" departLane="-361257727#0_1" departPos="5.10" departPosLat="0.00" departSpeed="7.20" departDelay="0.00" arrival="326.90" arrivalLane="-440471861#0_1" arrivalPos="31.49" arrivalPosLat="-0.00" arrivalSpeed="23.90" duration="197.70" routeLength="1414.29" waitingTime="51.40" waitingCount="1" stopTime="0.00" timeLoss="60.06" rerouteNo="1" devices="tripinfo_B2_1.1 routing_B2_1.1" vType="car" speedFactor="0.86" vaporized=""/>
    <tripinfo id="B2_1.2" depart="150.30" departLane="-361257727#0_1" departPos="5.10" departPosLat="0.00" departSpeed="8.28" departDelay="0.00" arrival="328.10" arrivalLane="-440471861#0_1" arrivalPos="31.49" arrivalPosLat="-0.00" arrivalSpeed="26.34" duration="177.80" routeLength="1414.29" waitingTime="43.00" waitingCount="1" stopTime="0.00" timeLoss="58.17" rerouteNo="1" devices="tripinfo_B2_1.2 routing_B2_1.2" vType="car" speedFactor="0.99" vaporized=""/>
    <tripinfo id="A3_1.2" depart="220.60" departLane="-793339796#2_2" departPos="8.10" departPosLat="0.00" departSpeed="27.78" departDelay="6.00" arrival="331.60" arrivalLane="-140483224#1_2" arrivalPos="64.17" arrivalPosLat="0.00" arrivalSpeed="27.74" duration="111.00" routeLength="1078.71" waitingTime="42.70" waitingCount="2" stopTime="0.00" timeLoss="70.72" rerouteNo="1" devices="tripinfo_A3_1.2 routing_A3_1.2" vType="jeep" speedFactor="1.00" vaporized=""/>
    <personinfo id="pf_2.8" depart="288.00" type="ped" speedFactor="1.06" duration="45.40" waitingTime="22.60" timeLoss="24.89" traveltime="45.40">
        <walk depart="288.00" departPos="15.72" arrival="333.40" arrivalPos="4.00" duration="45.40" routeLength="30.33" timeLoss="24.89" maxSpeed="1.48" waitingTime="22.60"/>
    </personinfo>
    <personinfo id="pf_1.2" depart="72.00" type="ped" speedFactor="1.01" duration="262.70" waitingTime="3.00" timeLoss="28.85" traveltime="262.70">
        <walk depart="72.00" departPos="25.00" arrival="334.70" arrivalPos="4.00" duration="262.70" routeLength="328.17" timeLoss="28.85" maxSpeed="1.40" waitingTime="3.00"/>
    </personinfo>
    <tripinfo id="D2_1.2" depart="185.20" departLane="140483224#1_1" departPos="7.20" departPosLat="0.00" departSpeed="26.14" departDelay="0.00" arrival="336.70" arrivalLane="-145894807#0_1" arrivalPos="260.97" arrivalPosLat="0.00" arrivalSpeed="7.80" duration="151.50" routeLength="1107.75" waitingTime="42.40" waitingCount="1" stopTime="0.00" timeLoss="58.72" rerouteNo="1" devices="tripinfo_D2_1.2 routing_D2_1.2" vType="truck" speedFactor="0.94" vaporized=""/>
    <tripinfo id="D2_1.3" depart="223.20" departLane="140483224#1_1" departPos="2.30" departPosLat="0.00" departSpeed="28.22" departDelay="0.00" arrival="338.60" arrivalLane="-145894807#0_1" arrivalPos="260.97" arrivalPosLat="0.00" arrivalSpeed="8.23" duration="115.40" routeLength="1112.65" waitingTime="14.50" waitingCount="1" stopTime="0.00" timeLoss="29.31" rerouteNo="1" devices="tripinfo_D2_1.3 routing_D2_1.3" vType="motorcycle" speedFactor="1.02" vaporized=""/>
    <personinfo id="pf_1.1" depart="36.00" type="ped" speedFactor="0.94" duration="303.00" waitingTime="23.10" timeLoss="51.18" traveltime="303.00">
        <walk depart="36.00" departPos="25.00" arrival="339.00" arrivalPos="4.00" duration="303.00" routeLength="328.17" timeLoss="51.18" maxSpeed="1.30" waitingTime="23.10"/>
    </personinfo>
    <personinfo id="pf_2.9" depart="324.00" type="ped" speedFactor="0.96" duration="25.20" waitingTime="0.00" timeLoss="2.44" traveltime="25.20">
        <walk depart="324.00" departPos="15.72" arrival="349.20" arrivalPos="4.00" duration="25.20" routeLength="30.33" timeLoss="2.44" maxSpeed="1.33" waitingTime="0.00"/>
    </personinfo>
    <tripinfo id="A1_1.1" depart="251.30" departLane="-793339796#2_1" departPos="5.10" departPosLat="0.00" departSpeed="24.70" departDelay="0.00" arrival="355.60" arrivalLane="-145894807#0_1" arrivalPos="260.97" arrivalPosLat="0.00" arrivalSpeed="7.40" duration="104.30" routeLength="1057.45" waitingTime="0.00" waitingCount="0" stopTime="0.00" timeLoss="3.62" rerouteNo="1" devices="tripinfo_A1_1.1 routing_A1_1.1" vType="car" speedFactor="0.89" vaporized=""/>
    <tripinfo id="C3_1.4" depart="303.70" departLane="440471861#0_1" departPos="7.20" departPosLat="0.00" departSpeed="25.92" departDelay="0.00" arrival="371.30" arrivalLane="-140483224#1_1" arrivalPos="64.17" arrivalPosLat="-0.00" arrivalSpeed="25.90" duration="67.60" routeLength="1051.83" waitingTime="6.90" waitingCount="1" stopTime="0.00" timeLoss="25.80" rerouteNo="1" devices="tripinfo_C3_1.4 routing_C3_1.4" vType="truck" speedFactor="0.93" vaporized=""/>
    <tripinfo id="A2_1.4" depart="323.60" departLane="-793339796#2_1" departPos="5.10" departPosLat="0.00" departSpeed="27.74" departDelay="10.70" arrival="385.70" arrivalLane="-440471861#0_1" arrivalPos="31.49" arrivalPosLat="0.00" arrivalSpeed="27.72" duration="62.10" routeLength="1081.89" waitingTime="11.20" waitingCount="1" stopTime="0.00" timeLoss="23.08" rerouteNo="1" devices="tripinfo_A2_1.4 routing_A2_1.4" vType="car" speedFactor="1.00" vaporized=""/>
    <tripinfo id="D1_1.4" depart="236.00" departLane="140483224#1_1" departPos="2.30" departPosLat="0.00" departSpeed="28.23" departDelay="0.00" arrival="388.30" arrivalLane="-793339796#2_2" arrivalPos="83.13" arrivalPosLat="0.00" arrivalSpeed="28.13" duration="152.30" routeLength="1651.25" waitingTime="79.00" waitingCount="2" stopTime="0.00" timeLoss="91.56" rerouteNo="1" devices="tripinfo_D1_1.4 routing_D1_1.4" vType="motorcycle" speedFactor="1.02" vaporized=""/>
    <personinfo id="pf_2.10" depart="360.00" type="ped" speedFactor="0.93" duration="36.30" waitingTime="10.20" timeLoss="12.76" traveltime="36.30">
        <walk depart="360.00" departPos="15.72" arrival="396.30" arrivalPos="4.00" duration="36.30" routeLength="30.33" timeLoss="12.76" maxSpeed="1.29" waitingTime="10.20"/>
    </personinfo>
    <tripinfo id="A3_1.5" depart="255.40" departLane="-793339796#2_2" departPos="8.10" departPosLat="0.00" departSpeed="27.78" departDelay="0.00" arrival="397.00" arrivalLane="-140483224#1_2" arrivalPos="64.17" arrivalPosLat="-0.00" arrivalSpeed="27.78" duration="141.60" routeLength="1078.71" waitingTime="72.20" waitingCount="2" stopTime="0.00" timeLoss="101.25" rerouteNo="1" devices="tripinfo_A3_1.5 routing_A3_1.5" vType="jeep" speedFactor="1.00" vaporized=""/>
    <tripinfo id="C1_1.5" depart="294.40" departLane="440471861#0_1" departPos="5.10" departPosLat="0.00" departSpeed="28.13" departDelay="0.00" arrival="397.80" arrivalLane="-793339796#2_2" arrivalPos="83.13" arrivalPosLat="0.00" arrivalSpeed="28.07" duration="103.40" routeLength="1654.03" waitingTime="18.20" waitingCount="2" stopTime="0.00" timeLoss="43.45" rerouteNo="1" devices="tripinfo_C1_1.5 routing_C1_1.5" vType="car" speedFactor="1.01" vaporized=""/>
    <tripinfo id="A3_1.6" depart="282.20" departLane="-793339796#2_1" departPos="2.30" departPosLat="0.00" departSpeed="27.38" departDelay="0.00" arrival="398.30" arrivalLane="-140483224#1_2" arrivalPos="64.17" arrivalPosLat="0.00" arrivalSpeed="27.23" duration="116.10" routeLength="1084.51" waitingTime="52.00" waitingCount="1" stopTime="0.00" timeLoss="74.95" rerouteNo="1" devices="tripinfo_A3_1.6 routing_A3_1.6" vType="motorcycle" speedFactor="0.99" vaporized=""/>
    <tripinfo id="A3_1.7" depart="298.10" departLane="-793339796#2_2" departPos="5.10" departPosLat="0.00" departSpeed="19.02" departDelay="1.10" arrival="399.10" arrivalLane="-140483224#1_1" arrivalPos="64.17" arrivalPosLat="-0.00" arrivalSpeed="24.54" duration="101.00" routeLength="1081.71" waitingTime="29.30" waitingCount="2" stopTime="0.00" timeLoss="55.36" rerouteNo="1" devices="tripinfo_A3_1.7 routing_A3_1.7" vType="car" speedFactor="0.89" vaporized=""/>
    <tripinfo id="D1_1.5" depart="315.20" departLane="140483224#1_1" departPos="5.10" departPosLat="0.00" departSpeed="31.25" departDelay="0.00" arrival="400.20" arrivalLane="-793339796#2_2" arrivalPos="83.13" arrivalPosLat="0.00" arrivalSpeed="31.12" duration="85.00" routeLength="1648.45" waitingTime="4.20" waitingCount="1" stopTime="0.00" timeLoss="30.24" rerouteNo="1" devices="tripinfo_D1_1.5 routing_D1_1.5" vType="car" speedFactor="1.12" vaporized=""/>
    <personinfo id="pf_4.0" depart="0.00" type="ped" speedFactor="1.07" duration="408.50" waitingTime="301.30" timeLoss="313.11" traveltime="408.50">
        <walk depart="0.00" departPos="25.00" arrival="52.40" arrivalPos="27.07" duration="52.40" routeLength="69.89" timeLoss="5.38" maxSpeed="1.49" waitingTime="0.00"/>
        <walk depart="52.40" departPos="27.07" arrival="408.50" arrivalPos="27.01" duration="356.10" routeLength="71.90" timeLoss="307.73" maxSpeed="1.49" waitingTime="301.30"/>
    </personinfo>
    <personinfo id="pf_3.0" depart="0.00" type="ped" speedFactor="0.95" duration="423.60" waitingTime="23.30" timeLoss="62.52" traveltime="423.60">
        <walk depart="0.00" departPos="25.00" arrival="113.50" arrivalPos="18.88" duration="113.50" routeLength="135.02" timeLoss="10.89" maxSpeed="1.32" waitingTime="0.00"/>
        <walk depart="113.50" departPos="18.88" arrival="423.60" arrivalPos="22.75" duration="310.10" routeLength="340.11" timeLoss="51.63" maxSpeed="1.32" waitingTime="23.30"/>
    </personinfo>
    <tripinfo id="A3_1.8" depart="323.60" departLane="-793339796#2_2" departPos="5.10" departPosLat="0.00" departSpeed="33.71" departDelay="8.10" arrival="423.80" arrivalLane="-140483224#1_1" arrivalPos="64.17" arrivalPosLat="-0.00" arrivalSpeed="33.69" duration="100.20" routeLength="1081.71" waitingTime="34.30" waitingCount="2" stopTime="0.00" timeLoss="66.87" rerouteNo="1" devices="tripinfo_A3_1.8 routing_A3_1.8" vType="car" speedFactor="1.21" vaporized=""/>
    <tripinfo id="A1_1.2" depart="309.20" departLane="-793339796#2_1" departPos="5.10" departPosLat="0.00" departSpeed="22.10" departDelay="0.00" arrival="425.30" arrivalLane="-145894807#0_1" arrivalPos="260.97" arrivalPosLat="0.00" arrivalSpeed="6.62" duration="116.10" routeLength="1057.45" waitingTime="0.00" waitingCount="0" stopTime="0.00" timeLoss="3.51" rerouteNo="1" devices="tripinfo_A1_1.2 routing_A1_1.2" vType="car" speedFactor="0.80" vaporized=""/>
    <personinfo id="pf_1.3" depart="108.00" type="ped" speedFactor="1.08" duration="326.40" waitingTime="83.80" timeLoss="108.17" traveltime="326.40">
        <walk depart="108.00" departPos="25.00" arrival="434.40" arrivalPos="4.00" duration="326.40" routeLength="328.17" timeLoss="108.17" maxSpeed="1.50" waitingTime="83.80"/>
    </personinfo>
    <personinfo id="pf_1.4" depart="144.00" type="ped" speedFactor="1.03" duration="291.40" waitingTime="36.20" timeLoss="62.07" traveltime="291.40">
        <walk depart="144.00" departPos="25.00" arrival="435.40" arrivalPos="4.00" duration="291.40" routeLength="328.17" timeLoss="62.07" maxSpeed="1.43" waitingTime="36.20"/>
    </personinfo>