<?xml version="1.0" encoding="UTF-8"?>

<!-- generated on 2025-11-18 10:08:17 by Eclipse SUMO sumo Version 1.24.0
<sumoConfiguration xmlns:xsi="http://www.w3.org/2001/XMLSchema-instance" xsi:noNamespaceSchemaLocation="http://sumo.dlr.de/xsd/sumoConfiguration.xsd">

    <input>
        <net-file value="Olivarez_traci\network/map.net.xml"/>
        <route-files value="Olivarez_traci\demand\flows_slow_traffic.rou.xml"/>
        <additional-files value="Olivarez_traci\additionals/map.poly.xml,Olivarez_traci\ additionals/detectors.add.xml"/>
    </input>

    <output>
        <tripinfo-output value="Olivarez_traci\output_A2C\SP_A2C_Slow_trips.xml"/>
        <statistic-output value="Olivarez_traci\output_A2C\SP_A2C_Slow_stats.xml"/>
    </output>

    <time>
        <begin value="0"/>
        <end value="10800"/>
    </time>

    <processing>
        <collision.action value="none"/>
        <collision.check-junctions value="false"/>
        <collision.mingap-factor value="0"/>
    </processing>

    <report>
        <no-warnings value="true"/>
    </report>

    <traci_server>
        <remote-port value="63505"/>
    </traci_server>

</sumoConfiguration>
-->

<tripinfos xmlns:xsi="http://www.w3.org/2001/XMLSchema-instance" xsi:noNamespaceSchemaLocation="http://sumo.dlr.de/xsd/tripinfo_file.xsd">
    <tripinfo id="D3_1.0" depart="2.00" departLane="140483224#1_2" departPos="5.10" departSpeed="29.95" departDelay="0.00" arrival="45.00" arrivalLane="-440471861#0_2" arrivalPos="31.49" arrivalSpeed="29.21" duration="43.00" routeLength="1069.09" waitingTime="0.00" waitingCount="0" stopTime="0.00" timeLoss="5.51" rerouteNo="1" devices="tripinfo_D3_1.0 routing_D3_1.0" vType="car" speedFactor="1.08" vaporized=""/>
    <personinfo id="pf_2.0" depart="0.00" type="ped" speedFactor="0.95" duration="51.00" waitingTime="25.00" timeLoss="27.95" traveltime="51.00">
        <walk depart="0.00" departPos="15.72" arrival="51.00" arrivalPos="4.00" duration="51.00" routeLength="30.33" timeLoss="27.95" maxSpeed="1.32" waitingTime="25.00"/>
    </personinfo>
    <tripinfo id="D3_1.1" depart="11.00" departLane="140483224#1_2" departPos="5.10" departSpeed="32.26" departDelay="0.00" arrival="51.00" arrivalLane="-440471861#0_2" arrivalPos="31.49" arrivalSpeed="32.19" duration="40.00" routeLength="1069.09" waitingTime="0.00" waitingCount="0" stopTime="0.00" timeLoss="6.04" rerouteNo="1" devices="tripinfo_D3_1.1 routing_D3_1.1" vType="car" speedFactor="1.16" vaporized=""/>
    <personinfo id="pf_2.1" depart="18.00" type="ped" speedFactor="0.87" duration="35.00" waitingTime="5.00" timeLoss="10.04" traveltime="35.00">
        <walk depart="18.00" departPos="15.72" arrival="53.00" arrivalPos="4.00" duration="35.00" routeLength="30.33" timeLoss="10.04" maxSpeed="1.22" waitingTime="5.00"/>
    </personinfo>
    <personinfo id="pf_2.2" depart="36.00" type="ped" speedFactor="1.03" duration="24.00" waitingTime="0.00" timeLoss="2.90" traveltime="24.00">
        <walk depart="36.00" departPos="15.72" arrival="60.00" arrivalPos="4.00" duration="24.00" routeLength="30.33" timeLoss="2.90" maxSpeed="1.44" waitingTime="0.00"/>
    </personinfo>
    <personinfo id="pf_2.3" depart="54.00" type="ped" speedFactor="1.11" duration="22.00" waitingTime="0.00" timeLoss="2.30" traveltime="22.00">
        <walk depart="54.00" departPos="15.72" arrival="76.00" arrivalPos="4.00" duration="22.00" routeLength="30.33" timeLoss="2.30" maxSpeed="1.54" waitingTime="0.00"/>
    </personinfo>
    <tripinfo id="D2_1.0" depart="0.00" departLane="140483224#1_1" departPos="5.10" departSpeed="25.60" departDelay="0.00" arrival="103.00" arrivalLane="-145894807#0_1" arrivalPos="260.97" arrivalSpeed="6.69" duration="103.00" routeLength="1109.85" waitingTime="0.00" waitingCount="0" stopTime="0.00" timeLoss="7.97" rerouteNo="1" devices="tripinfo_D2_1.0 routing_D2_1.0" vType="car" speedFactor="0.92" vaporized=""/>
    <personinfo id="pf_2.4" depart="72.00" type="ped" speedFactor="1.07" duration="47.00" waitingTime="24.00" timeLoss="26.54" traveltime="47.00">
        <walk depart="72.00" departPos="15.72" arrival="119.00" arrivalPos="4.00" duration="47.00" routeLength="30.33" timeLoss="26.54" maxSpeed="1.48" waitingTime="24.00"/>
    </personinfo>
    <personinfo id="pf_2.5" depart="90.00" type="ped" speedFactor="1.02" duration="31.00" waitingTime="5.00" timeLoss="9.63" traveltime="31.00">
        <walk depart="90.00" departPos="15.72" arrival="121.00" arrivalPos="4.00" duration="31.00" routeLength="30.33" timeLoss="9.63" maxSpeed="1.42" waitingTime="5.00"/>
    </personinfo>
    <tripinfo id="A1_1.0" depart="13.00" departLane="-793339796#2_1" departPos="5.10" departSpeed="25.27" departDelay="0.00" arrival="123.00" arrivalLane="-145894807#0_1" arrivalPos="260.97" arrivalSpeed="6.30" duration="110.00" routeLength="1057.45" waitingTime="0.00" waitingCount="0" stopTime="0.00" timeLoss="11.31" rerouteNo="1" devices="tripinfo_A1_1.0 routing_A1_1.0" vType="car" speedFactor="0.91" vaporized=""/>
    <personinfo id="pf_4.0" depart="0.00" type="ped" speedFactor="1.00" duration="125.00" waitingTime="8.00" timeLoss="22.76" traveltime="125.00">
        <walk depart="0.00" departPos="25.00" arrival="56.00" arrivalPos="27.07" duration="56.00" routeLength="69.89" timeLoss="5.60" maxSpeed="1.39" waitingTime="0.00"/>
        <walk depart="56.00" departPos="27.07" arrival="125.00" arrivalPos="27.01" duration="69.00" routeLength="71.90" timeLoss="17.15" maxSpeed="1.39" waitingTime="8.00"/>
    </personinfo>
    <tripinfo id="D1_1.0" depart="12.00" departLane="140483224#1_1" departPos="5.10" departSpeed="29.25" departDelay="0.00" arrival="125.00" arrivalLane="-793339796#2_2" arrivalPos="83.13" arrivalSpeed="29.13" duration="113.00" routeLength="1648.45" waitingTime="31.00" waitingCount="1" stopTime="0.00" timeLoss="53.56" rerouteNo="1" devices="tripinfo_D1_1.0 routing_D1_1.0" vType="car" speedFactor="1.05" vaporized=""/>
    <personinfo id="pf_2.6" depart="108.00" type="ped" speedFactor="1.00" duration="25.00" waitingTime="0.00" timeLoss="3.23" traveltime="25.00">
        <walk depart="108.00" departPos="15.72" arrival="133.00" arrivalPos="4.00" duration="25.00" routeLength="30.33" timeLoss="3.23" maxSpeed="1.39" waitingTime="0.00"/>
    </personinfo>
    <tripinfo id="A1_1.1" depart="32.00" departLane="-793339796#2_1" departPos="5.10" departSpeed="27.04" departDelay="12.00" arrival="135.00" arrivalLane="-145894807#0_1" arrivalPos="260.97" arrivalSpeed="7.83" duration="103.00" routeLength="1057.45" waitingTime="0.00" waitingCount="0" stopTime="0.00" timeLoss="10.30" rerouteNo="1" devices="tripinfo_A1_1.1 routing_A1_1.1" vType="car" speedFactor="0.97" vaporized=""/>
    <personinfo id="pf_4.1" depart="18.00" type="ped" speedFactor="0.99" duration="133.00" waitingTime="13.00" timeLoss="30.03" traveltime="133.00">
        <walk depart="18.00" departPos="25.00" arrival="79.00" arrivalPos="27.07" duration="61.00" routeLength="69.89" timeLoss="10.25" maxSpeed="1.38" waitingTime="2.00"/>
        <walk depart="79.00" departPos="27.07" arrival="151.00" arrivalPos="27.01" duration="72.00" routeLength="71.90" timeLoss="19.79" maxSpeed="1.38" waitingTime="11.00"/>
    </personinfo>
    <tripinfo id="D3_1.2" depart="25.00" departLane="140483224#1_1" departPos="2.30" departSpeed="31.61" departDelay="0.00" arrival="161.00" arrivalLane="-440471861#0_2" arrivalPos="31.49" arrivalSpeed="28.86" duration="136.00" routeLength="1071.89" waitingTime="87.00" waitingCount="2" stopTime="0.00" timeLoss="100.83" rerouteNo="1" devices="tripinfo_D3_1.2 routing_D3_1.2" vType="motorcycle" speedFactor="1.14" vaporized=""/>
    <personinfo id="pf_4.2" depart="36.00" type="ped" speedFactor="1.05" duration="128.00" waitingTime="16.00" timeLoss="30.58" traveltime="128.00">
        <walk depart="36.00" departPos="25.00" arrival="95.00" arrivalPos="27.07" duration="59.00" routeLength="69.89" timeLoss="10.98" maxSpeed="1.46" waitingTime="4.00"/>
        <walk depart="95.00" departPos="27.07" arrival="164.00" arrivalPos="27.01" duration="69.00" routeLength="71.90" timeLoss="19.60" maxSpeed="1.46" waitingTime="12.00"/>
    </personinfo>
    <tripinfo id="D3_1.3" depart="71.00" departLane="140483224#1_1" departPos="2.30" departSpeed="27.62" departDelay="0.00" arrival="169.00" arrivalLane="-440471861#0_2" arrivalPos="31.49" arrivalSpeed="27.40" duration="98.00" routeLength="1071.89" waitingTime="46.00" waitingCount="1" stopTime="0.00" timeLoss="57.46" rerouteNo="1" devices="tripinfo_D3_1.3 routing_D3_1.3" vType="tricycle" speedFactor="0.99" vaporized=""/>
    <tripinfo id="C3_1.0" depart="7.00" departLane="440471861#0_1" departPos="8.10" departSpeed="27.78" departDelay="0.00" arrival="173.00" arrivalLane="-140483224#1_1" arrivalPos="64.17" arrivalSpeed="27.65" duration="166.00" routeLength="1050.93" waitingTime="100.00" waitingCount="2" stopTime="0.00" timeLoss="126.57" rerouteNo="1" devices="tripinfo_C3_1.0 routing_C3_1.0" vType="jeep" speedFactor="1.00" vaporized=""/>
    <tripinfo id="C3_1.1" depart="49.00" departLane="440471861#0_1" departPos="8.10" departSpeed="27.78" departDelay="0.00" arrival="174.00" arrivalLane="-140483224#1_1" arrivalPos="64.17" arrivalSpeed="27.21" duration="125.00" routeLength="1050.93" waitingTime="55.00" waitingCount="2" stopTime="0.00" timeLoss="85.66" rerouteNo="1" devices="tripinfo_C3_1.1 routing_C3_1.1" vType="jeep" speedFactor="1.00" vaporized=""/>
    <tripinfo id="C3_1.2" depart="69.00" departLane="440471861#0_1" departPos="8.10" departSpeed="27.10" departDelay="0.00" arrival="175.00" arrivalLane="-140483224#1_1" arrivalPos="64.17" arrivalSpeed="27.66" duration="106.00" routeLength="1050.93" waitingTime="38.00" waitingCount="2" stopTime="0.00" timeLoss="66.93" rerouteNo="1" devices="tripinfo_C3_1.2 routing_C3_1.2" vType="jeep" speedFactor="1.00" vaporized=""/>
    <tripinfo id="D3_1.4" depart="98.00" departLane="140483224#1_2" departPos="8.10" departSpeed="27.78" departDelay="0.00" arrival="177.00" arrivalLane="-440471861#0_2" arrivalPos="31.49" arrivalSpeed="27.25" duration="79.00" routeLength="1066.09" waitingTime="19.00" waitingCount="1" stopTime="0.00" timeLoss="38.44" rerouteNo="1" devices="tripinfo_D3_1.4 routing_D3_1.4" vType="jeep" speedFactor="1.00" vaporized=""/>
    <personinfo id="pf_4.3" depart="54.00" type="ped" speedFactor="1.00" duration="129.00" waitingTime="12.00" timeLoss="26.87" traveltime="129.00">
        <walk depart="54.00" departPos="25.00" arrival="114.00" arrivalPos="27.07" duration="60.00" routeLength="69.89" timeLoss="9.66" maxSpeed="1.39" waitingTime="4.00"/>
        <walk depart="114.00" departPos="27.07" arrival="183.00" arrivalPos="27.01" duration="69.00" routeLength="71.90" timeLoss="17.21" maxSpeed="1.39" waitingTime="8.00"/>
    </personinfo>
    <tripinfo id="C1_1.1" depart="66.00" departLane="440471861#0_1" departPos="2.30" departSpeed="31.15" departDelay="0.00" arrival="183.00" arrivalLane="-793339796#2_2" arrivalPos="83.13" arrivalSpeed="30.62" duration="117.00" routeLength="1656.83" waitingTime="42.00" waitingCount="2" stopTime="0.00" timeLoss="62.93" rerouteNo="1" devices="tripinfo_C1_1.1 routing_C1_1.1" vType="motorcycle" speedFactor="1.12" vaporized=""/>
    <personinfo id="pf_2.8" depart="144.00" type="ped" speedFactor="0.96" duration="47.00" waitingTime="20.00" timeLoss="24.30" traveltime="47.00">
        <walk depart="144.00" departPos="15.72" arrival="191.00" arrivalPos="4.00" duration="47.00" routeLength="30.33" timeLoss="24.30" maxSpeed="1.34" waitingTime="20.00"/>
    </personinfo>
    <personinfo id="pf_2.9" depart="162.00" type="ped" speedFactor="0.98" duration="29.00" waitingTime="3.00" timeLoss="6.81" traveltime="29.00">
        <walk depart="162.00" departPos="15.72" arrival="191.00" arrivalPos="4.00" duration="29.00" routeLength="30.33" timeLoss="6.81" maxSpeed="1.37" waitingTime="3.00"/>
    </personinfo>
    <personinfo id="pf_2.7" depart="126.00" type="ped" speedFactor="0.97" duration="66.00" waitingTime="40.00" timeLoss="43.51" traveltime="66.00">
        <walk depart="126.00" departPos="15.72" arrival="192.00" arrivalPos="4.00" duration="66.00" routeLength="30.33" timeLoss="43.51" maxSpeed="1.35" waitingTime="40.00"/>
    </personinfo>
    <tripinfo id="D3_1.5" depart="145.00" departLane="140483224#1_1" departPos="2.30" departSpeed="26.57" departDelay="0.00" arrival="192.00" arrivalLane="-440471861#0_2" arrivalPos="31.49" arrivalSpeed="24.73" duration="47.00" routeLength="1071.89" waitingTime="0.00" waitingCount="0" stopTime="0.00" timeLoss="4.74" rerouteNo="1" devices="tripinfo_D3_1.5 routing_D3_1.5" vType="motorcycle" speedFactor="0.96" vaporized=""/>
    <tripinfo id="D3_1.6" depart="153.00" departLane="140483224#1_2" departPos="5.10" departSpeed="29.75" departDelay="0.00" arrival="197.00" arrivalLane="-440471861#0_2" arrivalPos="31.49" arrivalSpeed="29.21" duration="44.00" routeLength="1069.09" waitingTime="0.00" waitingCount="0" stopTime="0.00" timeLoss="6.10" rerouteNo="1" devices="tripinfo_D3_1.6 routing_D3_1.6" vType="car" speedFactor="1.07" vaporized=""/>
    <tripinfo id="A2_1.0" depart="32.00" departLane="-793339796#2_2" departPos="5.10" departSpeed="29.16" departDelay="2.00" arrival="200.00" arrivalLane="-440471861#0_1" arrivalPos="31.49" arrivalSpeed="28.39" duration="168.00" routeLength="1081.89" waitingTime="113.00" waitingCount="2" stopTime="0.00" timeLoss="130.49" rerouteNo="1" devices="tripinfo_A2_1.0 routing_A2_1.0" vType="car" speedFactor="1.05" vaporized=""/>
    <tripinfo id="C1_1.2" depart="77.00" departLane="440471861#0_1" departPos="5.10" departSpeed="28.25" departDelay="0.00" arrival="200.00" arrivalLane="-793339796#2_2" arrivalPos="83.13" arrivalSpeed="27.67" duration="123.00" routeLength="1654.03" waitingTime="31.00" waitingCount="3" stopTime="0.00" timeLoss="62.55" rerouteNo="1" devices="tripinfo_C1_1.2 routing_C1_1.2" vType="car" speedFactor="1.02" vaporized=""/>
    <personinfo id="pf_2.10" depart="180.00" type="ped" speedFactor="1.10" duration="22.00" waitingTime="0.00" timeLoss="2.23" traveltime="22.00">
        <walk depart="180.00" departPos="15.72" arrival="202.00" arrivalPos="4.00" duration="22.00" routeLength="30.33" timeLoss="2.23" maxSpeed="1.53" waitingTime="0.00"/>
    </personinfo>
    <tripinfo id="A2_1.1" depart="52.00" departLane="-793339796#2_1" departPos="5.10" departSpeed="28.59" departDelay="12.00" arrival="203.00" arrivalLane="-440471861#0_2" arrivalPos="31.49" arrivalSpeed="27.97" duration="151.00" routeLength="1081.89" waitingTime="95.00" waitingCount="1" stopTime="0.00" timeLoss="112.39" rerouteNo="1" devices="tripinfo_A2_1.1 routing_A2_1.1" vType="car" speedFactor="1.03" vaporized=""/>
    <tripinfo id="A2_1.2" depart="69.00" departLane="-793339796#2_1" departPos="5.10" departSpeed="27.59" departDelay="0.00" arrival="203.00" arrivalLane="-440471861#0_1" arrivalPos="31.49" arrivalSpeed="27.30" duration="134.00" routeLength="1081.89" waitingTime="79.00" waitingCount="2" stopTime="0.00" timeLoss="93.83" rerouteNo="1" devices="tripinfo_A2_1.2 routing_A2_1.2" vType="car" speedFactor="0.99" vaporized=""/>
    <tripinfo id="A2_1.3" depart="89.00" departLane="-793339796#2_1" departPos="2.30" departSpeed="30.40" departDelay="0.00" arrival="204.00" arrivalLane="-440471861#0_1" arrivalPos="31.49" arrivalSpeed="29.65" duration="115.00" routeLength="1084.69" waitingTime="56.00" waitingCount="2" stopTime="0.00" timeLoss="78.73" rerouteNo="1" devices="tripinfo_A2_1.3 routing_A2_1.3" vType="motorcycle" speedFactor="1.09" vaporized=""/>
    <tripinfo id="A2_1.4" depart="130.00" departLane="-793339796#2_1" departPos="5.10" departSpeed="31.83" departDelay="27.00" arrival="205.00" arrivalLane="-440471861#0_2" arrivalPos="31.49" arrivalSpeed="31.72" duration="75.00" routeLength="1081.89" waitingTime="26.00" waitingCount="1" stopTime="0.00" timeLoss="40.06" rerouteNo="1" devices="tripinfo_A2_1.4 routing_A2_1.4" vType="car" speedFactor="1.15" vaporized=""/>
    <tripinfo id="C1_1.0" depart="42.00" departLane="440471861#0_1" departPos="2.30" departSpeed="26.43" departDelay="0.00" arrival="206.00" arrivalLane="-793339796#2_2" arrivalPos="83.13" arrivalSpeed="26.42" duration="164.00" routeLength="1656.83" waitingTime="65.00" waitingCount="2" stopTime="0.00" timeLoss="99.09" rerouteNo="1" devices="tripinfo_C1_1.0 routing_C1_1.0" vType="tricycle" speedFactor="0.95" vaporized=""/>
    <tripinfo id="C1_1.3" depart="81.00" departLane="440471861#0_1" departPos="5.10" departSpeed="32.64" departDelay="0.00" arrival="208.00" arrivalLane="-793339796#2_2" arrivalPos="83.13" arrivalSpeed="26.36" duration="127.00" routeLength="1654.03" waitingTime="23.00" waitingCount="2" stopTime="0.00" timeLoss="75.62" rerouteNo="1" devices="tripinfo_C1_1.3 routing_C1_1.3" vType="car" speedFactor="1.17" vaporized=""/>
    <tripinfo id="D1_1.2" depart="76.00" departLane="140483224#1_1" departPos="5.10" departSpeed="29.18" departDelay="0.00" arrival="210.00" arrivalLane="-793339796#2_2" arrivalPos="83.13" arrivalSpeed="28.76" duration="134.00" routeLength="1648.45" waitingTime="45.00" waitingCount="1" stopTime="0.00" timeLoss="74.16" rerouteNo="1" devices="tripinfo_D1_1.2 routing_D1_1.2" vType="car" speedFactor="1.05" vaporized=""/>
    <tripinfo id="A2_1.5" depart="130.00" departLane="-793339796#2_2" departPos="8.10" departSpeed="27.78" departDelay="25.00" arrival="212.00" arrivalLane="-440471861#0_2" arrivalPos="31.49" arrivalSpeed="27.38" duration="82.00" routeLength="1078.89" waitingTime="24.00" waitingCount="1" stopTime="0.00" timeLoss="42.35" rerouteNo="1" devices="tripinfo_A2_1.5 routing_A2_1.5" vType="jeep" speedFactor="1.00" vaporized=""/>
    <tripinfo id="A2_1.6" depart="131.00" departLane="-793339796#2_2" departPos="5.10" departSpeed="26.31" departDelay="14.00" arrival="213.00" arrivalLane="-440471861#0_2" arrivalPos="31.49" arrivalSpeed="26.40" duration="82.00" routeLength="1081.89" waitingTime="23.00" waitingCount="1" stopTime="0.00" timeLoss="41.81" rerouteNo="1" devices="tripinfo_A2_1.6 routing_A2_1.6" vType="car" speedFactor="0.97" vaporized=""/>
    <tripinfo id="D2_1.1" depart="22.00" departLane="140483224#1_1" departPos="8.10" departSpeed="27.78" departDelay="0.00" arrival="217.00" arrivalLane="-145894807#0_1" arrivalPos="260.97" arrivalSpeed="8.00" duration="195.00" routeLength="1106.85" waitingTime="85.00" waitingCount="2" stopTime="0.00" timeLoss="107.40" rerouteNo="1" devices="tripinfo_D2_1.1 routing_D2_1.1" vType="jeep" speedFactor="1.00" vaporized=""/>
    <tripinfo id="D1_1.1" depart="30.00" departLane="140483224#1_1" departPos="7.20" departSpeed="26.19" departDelay="0.00" arrival="218.00" arrivalLane="-793339796#2_2" arrivalPos="83.13" arrivalSpeed="25.25" duration="188.00" routeLength="1646.35" waitingTime="77.00" waitingCount="2" stopTime="0.00" timeLoss="122.05" rerouteNo="1" devices="tripinfo_D1_1.1 routing_D1_1.1" vType="truck" speedFactor="0.94" vaporized=""/>
    <tripinfo id="A1_1.2" depart="131.00" departLane="-793339796#2_1" departPos="7.20" departSpeed="27.92" departDelay="25.00" arrival="229.00" arrivalLane="-145894807#0_1" arrivalPos="260.97" arrivalSpeed="8.27" duration="98.00" routeLength="1055.35" waitingTime="0.00" waitingCount="0" stopTime="0.00" timeLoss="8.34" rerouteNo="1" devices="tripinfo_A1_1.2 routing_A1_1.2" vType="truck" speedFactor="1.00" vaporized=""/>
    <personinfo id="pf_4.4" depart="72.00" type="ped" speedFactor="0.90" duration="160.00" waitingTime="28.00" timeLoss="46.17" traveltime="160.00">
        <walk depart="72.00" departPos="25.00" arrival="148.00" arrivalPos="27.07" duration="76.00" routeLength="69.89" timeLoss="19.89" maxSpeed="1.25" waitingTime="12.00"/>
        <walk depart="148.00" departPos="27.07" arrival="232.00" arrivalPos="27.01" duration="84.00" routeLength="71.90" timeLoss="26.28" maxSpeed="1.25" waitingTime="16.00"/>
    </personinfo>
    <tripinfo id="A3_1.0" depart="37.00" departLane="-793339796#2_2" departPos="5.10" departSpeed="26.30" departDelay="0.00" arrival="235.00" arrivalLane="-140483224#1_1" arrivalPos="64.17" arrivalSpeed="25.36" duration="198.00" routeLength="1081.71" waitingTime="130.00" waitingCount="3" stopTime="0.00" timeLoss="155.43" rerouteNo="1" devices="tripinfo_A3_1.0 routing_A3_1.0" vType="car" speedFactor="0.95" vaporized=""/>
    <tripinfo id="B3_1.0" depart="17.00" departLane="-361257727#0_1" departPos="5.10" departSpeed="8.83" departDelay="0.00" arrival="237.00" arrivalLane="-140483224#1_1" arrivalPos="64.17" arrivalSpeed="28.54" duration="220.00" routeLength="1427.09" waitingTime="87.00" waitingCount="1" stopTime="0.00" timeLoss="107.61" rerouteNo="1" devices="tripinfo_B3_1.0 routing_B3_1.0" vType="car" speedFactor="1.06" vaporized=""/>
    <tripinfo id="B3_1.1" depart="18.00" departLane="-361257727#0_1" departPos="5.10" departSpeed="5.07" departDelay="0.00" arrival="241.00" arrivalLane="-140483224#1_1" arrivalPos="64.17" arrivalSpeed="23.48" duration="223.00" routeLength="1427.09" waitingTime="63.00" waitingCount="1" stopTime="0.00" timeLoss="85.37" rerouteNo="1" devices="tripinfo_B3_1.1 routing_B3_1.1" vType="car" speedFactor="0.87" vaporized=""/>
    <tripinfo id="B3_1.2" depart="61.00" departLane="-361257727#0_1" departPos="7.20" departSpeed="8.80" departDelay="0.00" arrival="246.00" arrivalLane="-140483224#1_1" arrivalPos="64.17" arrivalSpeed="28.83" duration="185.00" routeLength="1424.99" waitingTime="48.00" waitingCount="1" stopTime="0.00" timeLoss="72.40" rerouteNo="1" devices="tripinfo_B3_1.2 routing_B3_1.2" vType="truck" speedFactor="1.06" vaporized=""/>
    <tripinfo id="B2_1.1" depart="110.00" departLane="-361257727#0_1" departPos="5.10" departSpeed="8.17" departDelay="0.00" arrival="248.00" arrivalLane="-440471861#0_2" arrivalPos="31.49" arrivalSpeed="26.14" duration="138.00" routeLength="1414.29" waitingTime="0.00" waitingCount="0" stopTime="0.00" timeLoss="17.13" rerouteNo="1" devices="tripinfo_B2_1.1 routing_B2_1.1" vType="car" speedFactor="0.98" vaporized=""/>
    <tripinfo id="B2_1.0" depart="68.00" departLane="-361257727#0_1" departPos="8.10" departSpeed="8.33" departDelay="0.00" arrival="249.00" arrivalLane="-440471861#0_1" arrivalPos="31.49" arrivalSpeed="23.76" duration="181.00" routeLength="1411.29" waitingTime="40.00" waitingCount="1" stopTime="0.00" timeLoss="62.67" rerouteNo="1" devices="tripinfo_B2_1.0 routing_B2_1.0" vType="jeep" speedFactor="1.00" vaporized=""/>
    <tripinfo id="D2_1.2" depart="66.00" departLane="140483224#1_1" departPos="5.10" departSpeed="22.42" departDelay="0.00" arrival="250.00" arrivalLane="-145894807#0_1" arrivalPos="260.97" arrivalSpeed="6.54" duration="184.00" routeLength="1109.85" waitingTime="55.00" waitingCount="2" stopTime="0.00" timeLoss="75.16" rerouteNo="1" devices="tripinfo_D2_1.2 routing_D2_1.2" vType="car" speedFactor="0.81" vaporized=""/>
    <tripinfo id="D2_1.3" depart="146.00" departLane="140483224#1_1" departPos="5.10" departSpeed="16.89" departDelay="0.00" arrival="252.00" arrivalLane="-145894807#0_1" arrivalPos="260.97" arrivalSpeed="8.63" duration="106.00" routeLength="1109.85" waitingTime="0.00" waitingCount="0" stopTime="0.00" timeLoss="21.75" rerouteNo="1" devices="tripinfo_D2_1.3 routing_D2_1.3" vType="car" speedFactor="1.04" vaporized=""/>
    <personinfo id="pf_2.13" depart="234.00" type="ped" speedFactor="1.10" duration="25.00" waitingTime="3.00" timeLoss="5.18" traveltime="25.00">
        <walk depart="234.00" departPos="15.72" arrival="259.00" arrivalPos="4.00" duration="25.00" routeLength="30.33" timeLoss="5.18" maxSpeed="1.53" waitingTime="3.00"/>
    </personinfo>
    <personinfo id="pf_2.11" depart="198.00" type="ped" speedFactor="1.04" duration="62.00" waitingTime="37.00" timeLoss="40.93" traveltime="62.00">
        <walk depart="198.00" departPos="15.72" arrival="260.00" arrivalPos="4.00" duration="62.00" routeLength="30.33" timeLoss="40.93" maxSpeed="1.44" waitingTime="37.00"/>
    </personinfo>
    <personinfo id="pf_2.12" depart="216.00" type="ped" speedFactor="1.00" duration="46.00" waitingTime="19.00" timeLoss="24.22" traveltime="46.00">
        <walk depart="216.00" departPos="15.72" arrival="262.00" arrivalPos="4.00" duration="46.00" routeLength="30.33" timeLoss="24.22" maxSpeed="1.39" waitingTime="19.00"/>
    </personinfo>
    <tripinfo id="D1_1.3" depart="153.00" departLane="140483224#1_1" departPos="12.10" departSpeed="27.78" departDelay="0.00" arrival="280.00" arrivalLane="-793339796#2_2" arrivalPos="83.13" arrivalSpeed="24.02" duration="127.00" routeLength="1641.45" waitingTime="29.00" waitingCount="1" stopTime="0.00" timeLoss="65.13" rerouteNo="1" devices="tripinfo_D1_1.3 routing_D1_1.3" vType="bus" speedFactor="1.00" vaporized=""/>
    <personinfo id="pf_2.14" depart="252.00" type="ped" speedFactor="0.83" duration="30.00" waitingTime="0.00" timeLoss="3.76" traveltime="30.00">
        <walk depart="252.00" departPos="15.72" arrival="282.00" arrivalPos="4.00" duration="30.00" routeLength="30.33" timeLoss="3.76" maxSpeed="1.16" waitingTime="0.00"/>
    </personinfo>
    <tripinfo id="D3_1.7" depart="161.00" departLane="140483224#1_1" departPos="2.30" departSpeed="25.98" departDelay="0.00" arrival="305.00" arrivalLane="-440471861#0_2" arrivalPos="31.49" arrivalSpeed="25.61" duration="144.00" routeLength="1071.89" waitingTime="90.00" waitingCount="2" stopTime="0.00" timeLoss="101.24" rerouteNo="1" devices="tripinfo_D3_1.7 routing_D3_1.7" vType="motorcycle" speedFactor="0.94" vaporized=""/>
    <tripinfo id="A1_1.3" depart="197.00" departLane="-793339796#2_1" departPos="2.30" departSpeed="26.58" departDelay="17.00" arrival="305.00" arrivalLane="-145894807#0_1" arrivalPos="260.97" arrivalSpeed="8.25" duration="108.00" routeLength="1060.25" waitingTime="0.00" waitingCount="0" stopTime="0.00" timeLoss="18.93" rerouteNo="1" devices="tripinfo_A1_1.3 routing_A1_1.3" vType="motorcycle" speedFactor="1.02" vaporized=""/>
    <tripinfo id="C3_1.4" depart="91.00" departLane="440471861#0_1" departPos="8.10" departSpeed="27.78" departDelay="0.00" arrival="312.00" arrivalLane="-140483224#1_1" arrivalPos="64.17" arrivalSpeed="27.59" duration="221.00" routeLength="1050.93" waitingTime="150.00" waitingCount="2" stopTime="0.00" timeLoss="182.40" rerouteNo="1" devices="tripinfo_C3_1.4 routing_C3_1.4" vType="jeep" speedFactor="1.00" vaporized=""/>
    <tripinfo id="C3_1.3" depart="86.00" departLane="440471861#0_1" departPos="8.10" departSpeed="27.78" departDelay="0.00" arrival="314.00" arrivalLane="-140483224#1_1" arrivalPos="64.17" arrivalSpeed="27.71" duration="228.00" routeLength="1050.93" waitingTime="152.00" waitingCount="2" stopTime="0.00" timeLoss="189.21" rerouteNo="1" devices="tripinfo_C3_1.3 routing_C3_1.3" vType="jeep" speedFactor="1.00" vaporized=""/>
    <tripinfo id="D3_1.8" depart="220.00" departLane="140483224#1_1" departPos="12.10" departSpeed="27.78" departDelay="0.00" arrival="316.00" arrivalLane="-440471861#0_2" arrivalPos="31.49" arrivalSpeed="27.42" duration="96.00" routeLength="1062.09" waitingTime="37.00" waitingCount="1" stopTime="0.00" timeLoss="55.72" rerouteNo="1" devices="tripinfo_D3_1.8 routing_D3_1.8" vType="bus" speedFactor="1.00" vaporized=""/>
    <tripinfo id="D3_1.9" depart="258.00" departLane="140483224#1_1" departPos="12.10" departSpeed="27.78" departDelay="0.00" arrival="319.00" arrivalLane="-440471861#0_2" arrivalPos="31.49" arrivalSpeed="27.29" duration="61.00" routeLength="1062.09" waitingTime="1.00" waitingCount="1" stopTime="0.00" timeLoss="20.34" rerouteNo="1" devices="tripinfo_D3_1.9 routing_D3_1.9" vType="bus" speedFactor="1.00" vaporized=""/>
    <personinfo id="pf_2.16" depart="288.00" type="ped" speedFactor="0.97" duration="32.00" waitingTime="5.00" timeLoss="9.46" traveltime="32.00">
        <walk depart="288.00" departPos="15.72" arrival="320.00" arrivalPos="4.00" duration="32.00" routeLength="30.33" timeLoss="9.46" maxSpeed="1.35" waitingTime="5.00"/>
    </personinfo>
    <tripinfo id="D3_1.10" depart="260.00" departLane="140483224#1_1" departPos="7.20" departSpeed="28.77" departDelay="0.00" arrival="321.00" arrivalLane="-440471861#0_2" arrivalPos="31.49" arrivalSpeed="28.53" duration="61.00" routeLength="1066.99" waitingTime="0.00" waitingCount="0" stopTime="0.00" timeLoss="21.13" rerouteNo="1" devices="tripinfo_D3_1.10 routing_D3_1.10" vType="truck" speedFactor="1.04" vaporized=""/>
    <tripinfo id="C2_1.0" depart="126.00" departLane="440471861#0_2" departPos="8.10" departSpeed="27.78" departDelay="0.00" arrival="322.00" arrivalLane="-145894807#0_1" arrivalPos="260.97" arrivalSpeed="8.30" duration="196.00" routeLength="1096.91" waitingTime="96.00" waitingCount="1" stopTime="0.00" timeLoss="108.62" rerouteNo="1" devices="tripinfo_C2_1.0 routing_C2_1.0" vType="jeep" speedFactor="1.00" vaporized=""/>
    <tripinfo id="D3_1.11" depart="272.00" departLane="140483224#1_2" departPos="2.30" departSpeed="32.27" departDelay="0.00" arrival="322.00" arrivalLane="-440471861#0_2" arrivalPos="31.49" arrivalSpeed="29.47" duration="50.00" routeLength="1071.89" waitingTime="0.00" waitingCount="0" stopTime="0.00" timeLoss="15.04" rerouteNo="1" devices="tripinfo_D3_1.11 routing_D3_1.11" vType="motorcycle" speedFactor="1.16" vaporized=""/>
    <personinfo id="pf_2.15" depart="270.00" type="ped" speedFactor="1.09" duration="54.00" waitingTime="28.00" timeLoss="33.92" traveltime="54.00">
        <walk depart="270.00" departPos="15.72" arrival="324.00" arrivalPos="4.00" duration="54.00" routeLength="30.33" timeLoss="33.92" maxSpeed="1.51" waitingTime="28.00"/>
    </personinfo>
    <tripinfo id="D3_1.12" depart="278.00" departLane="140483224#1_2" departPos="5.10" departSpeed="26.15" departDelay="0.00" arrival="327.00" arrivalLane="-440471861#0_2" arrivalPos="31.49" arrivalSpeed="25.16" duration="49.00" routeLength="1069.09" waitingTime="0.00" waitingCount="0" stopTime="0.00" timeLoss="5.27" rerouteNo="1" devices="tripinfo_D3_1.12 routing_D3_1.12" vType="car" speedFactor="0.94" vaporized=""/>