<?xml version="1.0" encoding="UTF-8"?>

<!-- generated on 2025-11-18 14:08:53 by Eclipse SUMO sumo Version 1.24.0
<sumoConfiguration xmlns:xsi="http://www.w3.org/2001/XMLSchema-instance" xsi:noNamespaceSchemaLocation="http://sumo.dlr.de/xsd/sumoConfiguration.xsd">

    <input>
        <net-file value="Olivarez_traci\network/map.net.xml"/>
        <route-files value="Olivarez_traci\demand\flows_slow_traffic.rou.xml"/>
        <additional-files value="Olivarez_traci\additionals/map.poly.xml,Olivarez_traci\ additionals/detectors.add.xml"/>
    </input>

    <output>
        <tripinfo-output value="Olivarez_traci\output_A2C\SP_A2C_Slow_trips.xml"/>
        <statistic-output value="Olivarez_traci\output_A2C\SP_A2C_Slow_stats.xml"/>
    </output>

    <time>
        <begin value="0"/>
        <end value="10800"/>
        <step-length value="0.1"/>
    </time>

    <processing>
        <lateral-resolution value="0.1"/>
        <collision.action value="none"/>
        <collision.check-junctions value="false"/>
        <collision.mingap-factor value="0"/>
    </processing>

    <report>
        <no-warnings value="true"/>
    </report>

    <traci_server>
        <remote-port value="53067"/>
    </traci_server>

    <gui_only>
        <delay value="0"/>
    </gui_only>

</sumoConfiguration>
-->

<tripinfos xmlns:xsi="http://www.w3.org/2001/XMLSchema-instance" xsi:noNamespaceSchemaLocation="http://sumo.dlr.de/xsd/tripinfo_file.xsd">
    <personinfo id="pf_2.0" depart="0.00" type="ped" speedFactor="0.95" duration="51.70" waitingTime="26.10" timeLoss="28.65" traveltime="51.70">
        <walk depart="0.00" departPos="15.72" arrival="51.70" arrivalPos="4.00" duration="51.70" routeLength="30.33" timeLoss="28.65" maxSpeed="1.32" waitingTime="26.10"/>
    </personinfo>
    <personinfo id="pf_2.1" depart="18.00" type="ped" speedFactor="0.87" duration="35.10" waitingTime="7.40" timeLoss="10.14" traveltime="35.10">
        <walk depart="18.00" departPos="15.72" arrival="53.10" arrivalPos="4.00" duration="35.10" routeLength="30.33" timeLoss="10.14" maxSpeed="1.22" waitingTime="7.40"/>
    </personinfo>
    <tripinfo id="A2_1.0" depart="8.90" departLane="-793339796#2_1" departPos="8.10" departPosLat="0.00" departSpeed="27.78" departDelay="0.00" arrival="69.80" arrivalLane="-440471861#0_1" arrivalPos="31.49" arrivalPosLat="0.00" arrivalSpeed="27.72" duration="60.90" routeLength="1078.89" waitingTime="3.40" waitingCount="1" stopTime="0.00" timeLoss="21.98" rerouteNo="1" devices="tripinfo_A2_1.0 routing_A2_1.0" vType="jeep" speedFactor="1.00" vaporized=""/>
    <personinfo id="pf_2.2" depart="36.00" type="ped" speedFactor="1.03" duration="34.60" waitingTime="11.20" timeLoss="13.50" traveltime="34.60">
        <walk depart="36.00" departPos="15.72" arrival="70.60" arrivalPos="4.00" duration="34.60" routeLength="30.33" timeLoss="13.50" maxSpeed="1.44" waitingTime="11.20"/>
    </personinfo>
    <personinfo id="pf_2.3" depart="54.00" type="ped" speedFactor="1.11" duration="22.10" waitingTime="0.00" timeLoss="2.40" traveltime="22.10">
        <walk depart="54.00" departPos="15.72" arrival="76.10" arrivalPos="4.00" duration="22.10" routeLength="30.33" timeLoss="2.40" maxSpeed="1.54" waitingTime="0.00"/>
    </personinfo>
    <tripinfo id="D1_1.0" depart="1.20" departLane="140483224#1_1" departPos="5.10" departPosLat="0.00" departSpeed="25.60" departDelay="0.00" arrival="80.60" arrivalLane="-793339796#2_2" arrivalPos="83.13" arrivalPosLat="0.00" arrivalSpeed="25.56" duration="79.40" routeLength="1648.45" waitingTime="0.00" waitingCount="0" stopTime="0.00" timeLoss="12.47" rerouteNo="1" devices="tripinfo_D1_1.0 routing_D1_1.0" vType="car" speedFactor="0.92" vaporized=""/>
    <tripinfo id="C3_1.0" depart="8.60" departLane="440471861#0_1" departPos="5.10" departPosLat="0.00" departSpeed="29.95" departDelay="0.00" arrival="100.80" arrivalLane="-140483224#1_1" arrivalPos="64.17" arrivalPosLat="-0.00" arrivalSpeed="29.89" duration="92.20" routeLength="1053.93" waitingTime="46.20" waitingCount="1" stopTime="0.00" timeLoss="55.96" rerouteNo="1" devices="tripinfo_C3_1.0 routing_C3_1.0" vType="car" speedFactor="1.08" vaporized=""/>
    <tripinfo id="C3_1.1" depart="22.80" departLane="440471861#0_1" departPos="5.10" departPosLat="0.00" departSpeed="29.43" departDelay="0.00" arrival="102.60" arrivalLane="-140483224#1_1" arrivalPos="64.17" arrivalPosLat="-0.00" arrivalSpeed="29.42" duration="79.80" routeLength="1053.93" waitingTime="28.00" waitingCount="1" stopTime="0.00" timeLoss="42.93" rerouteNo="1" devices="tripinfo_C3_1.1 routing_C3_1.1" vType="car" speedFactor="1.06" vaporized=""/>
    <tripinfo id="C3_1.2" depart="47.20" departLane="440471861#0_1" departPos="5.10" departPosLat="0.00" departSpeed="29.16" departDelay="0.00" arrival="104.50" arrivalLane="-140483224#1_1" arrivalPos="64.17" arrivalPosLat="0.00" arrivalSpeed="29.15" duration="57.30" routeLength="1053.93" waitingTime="3.90" waitingCount="1" stopTime="0.00" timeLoss="20.10" rerouteNo="1" devices="tripinfo_C3_1.2 routing_C3_1.2" vType="car" speedFactor="1.05" vaporized=""/>
    <personinfo id="pf_2.4" depart="72.00" type="ped" speedFactor="1.07" duration="38.60" waitingTime="15.90" timeLoss="18.14" traveltime="38.60">
        <walk depart="72.00" departPos="15.72" arrival="110.60" arrivalPos="4.00" duration="38.60" routeLength="30.33" timeLoss="18.14" maxSpeed="1.48" waitingTime="15.90"/>
    </personinfo>
    <personinfo id="pf_2.5" depart="90.00" type="ped" speedFactor="1.02" duration="23.60" waitingTime="0.00" timeLoss="2.23" traveltime="23.60">
        <walk depart="90.00" departPos="15.72" arrival="113.60" arrivalPos="4.00" duration="23.60" routeLength="30.33" timeLoss="2.23" maxSpeed="1.42" waitingTime="0.00"/>
    </personinfo>
    <personinfo id="pf_4.0" depart="0.00" type="ped" speedFactor="1.00" duration="119.60" waitingTime="4.90" timeLoss="17.36" traveltime="119.60">
        <walk depart="0.00" departPos="25.00" arrival="56.10" arrivalPos="27.07" duration="56.10" routeLength="69.89" timeLoss="5.70" maxSpeed="1.39" waitingTime="0.00"/>
        <walk depart="56.10" departPos="27.07" arrival="119.60" arrivalPos="27.01" duration="63.50" routeLength="71.90" timeLoss="11.65" maxSpeed="1.39" waitingTime="4.90"/>
    </personinfo>
    <tripinfo id="D3_1.0" depart="15.30" departLane="140483224#1_2" departPos="5.10" departPosLat="0.00" departSpeed="29.25" departDelay="0.00" arrival="121.60" arrivalLane="-440471861#0_2" arrivalPos="31.49" arrivalPosLat="0.00" arrivalSpeed="29.15" duration="106.30" routeLength="1069.09" waitingTime="59.10" waitingCount="1" stopTime="0.00" timeLoss="68.36" rerouteNo="1" devices="tripinfo_D3_1.0 routing_D3_1.0" vType="car" speedFactor="1.05" vaporized=""/>
    <tripinfo id="C1_1.2" depart="63.70" departLane="440471861#0_1" departPos="2.30" departPosLat="0.00" departSpeed="31.15" departDelay="0.00" arrival="127.50" arrivalLane="-793339796#2_2" arrivalPos="83.13" arrivalPosLat="0.00" arrivalSpeed="31.14" duration="63.80" routeLength="1656.83" waitingTime="0.00" waitingCount="0" stopTime="0.00" timeLoss="9.68" rerouteNo="1" devices="tripinfo_C1_1.2 routing_C1_1.2" vType="motorcycle" speedFactor="1.12" vaporized=""/>
    <tripinfo id="C1_1.0" depart="35.30" departLane="440471861#0_1" departPos="5.10" departPosLat="0.00" departSpeed="27.04" departDelay="0.00" arrival="133.10" arrivalLane="-793339796#2_2" arrivalPos="83.13" arrivalPosLat="0.00" arrivalSpeed="27.02" duration="97.80" routeLength="1654.03" waitingTime="17.30" waitingCount="1" stopTime="0.00" timeLoss="35.51" rerouteNo="1" devices="tripinfo_C1_1.0 routing_C1_1.0" vType="car" speedFactor="0.97" vaporized=""/>
    <tripinfo id="A2_1.2" depart="41.40" departLane="-793339796#2_1" departPos="2.30" departPosLat="0.00" departSpeed="31.61" departDelay="0.00" arrival="136.60" arrivalLane="-440471861#0_1" arrivalPos="31.49" arrivalPosLat="0.00" arrivalSpeed="31.54" duration="95.20" routeLength="1084.69" waitingTime="51.50" waitingCount="2" stopTime="0.00" timeLoss="60.81" rerouteNo="1" devices="tripinfo_A2_1.2 routing_A2_1.2" vType="motorcycle" speedFactor="1.14" vaporized=""/>
    <tripinfo id="C1_1.1" depart="57.10" departLane="440471861#0_1" departPos="2.30" departPosLat="0.00" departSpeed="26.43" departDelay="0.00" arrival="139.60" arrivalLane="-793339796#2_2" arrivalPos="83.13" arrivalPosLat="0.00" arrivalSpeed="26.36" duration="82.50" routeLength="1656.83" waitingTime="0.00" waitingCount="0" stopTime="0.00" timeLoss="18.66" rerouteNo="1" devices="tripinfo_C1_1.1 routing_C1_1.1" vType="tricycle" speedFactor="0.95" vaporized=""/>
    <personinfo id="pf_2.6" depart="108.00" type="ped" speedFactor="1.00" duration="33.90" waitingTime="9.70" timeLoss="12.13" traveltime="33.90">
        <walk depart="108.00" departPos="15.72" arrival="141.90" arrivalPos="4.00" duration="33.90" routeLength="30.33" timeLoss="12.13" maxSpeed="1.39" waitingTime="9.70"/>
    </personinfo>
    <tripinfo id="A2_1.3" depart="66.90" departLane="-793339796#2_1" departPos="5.10" departPosLat="0.00" departSpeed="26.30" departDelay="12.80" arrival="143.90" arrivalLane="-440471861#0_1" arrivalPos="31.49" arrivalPosLat="0.00" arrivalSpeed="26.25" duration="77.00" routeLength="1081.89" waitingTime="21.90" waitingCount="1" stopTime="0.00" timeLoss="35.79" rerouteNo="1" devices="tripinfo_A2_1.3 routing_A2_1.3" vType="car" speedFactor="0.95" vaporized=""/>
    <tripinfo id="A2_1.1" depart="16.40" departLane="-793339796#2_1" departPos="5.10" departPosLat="0.00" departSpeed="25.27" departDelay="0.00" arrival="144.10" arrivalLane="-440471861#0_2" arrivalPos="31.49" arrivalPosLat="-0.03" arrivalSpeed="25.25" duration="127.70" routeLength="1081.89" waitingTime="69.60" waitingCount="2" stopTime="0.00" timeLoss="84.80" rerouteNo="1" devices="tripinfo_A2_1.1 routing_A2_1.1" vType="car" speedFactor="0.91" vaporized=""/>
    <personinfo id="pf_4.1" depart="18.00" type="ped" speedFactor="0.99" duration="137.50" waitingTime="21.20" timeLoss="34.53" traveltime="137.50">
        <walk depart="18.00" departPos="25.00" arrival="82.10" arrivalPos="27.07" duration="64.10" routeLength="69.89" timeLoss="13.35" maxSpeed="1.38" waitingTime="7.20"/>
        <walk depart="82.10" departPos="27.07" arrival="155.50" arrivalPos="27.01" duration="73.40" routeLength="71.90" timeLoss="21.19" maxSpeed="1.38" waitingTime="14.00"/>
    </personinfo>
    <personinfo id="pf_4.2" depart="36.00" type="ped" speedFactor="1.05" duration="119.80" waitingTime="10.40" timeLoss="22.38" traveltime="119.80">
        <walk depart="36.00" departPos="25.00" arrival="92.10" arrivalPos="27.07" duration="56.10" routeLength="69.89" timeLoss="8.08" maxSpeed="1.46" waitingTime="2.30"/>
        <walk depart="92.10" departPos="27.07" arrival="155.80" arrivalPos="27.01" duration="63.70" routeLength="71.90" timeLoss="14.30" maxSpeed="1.46" waitingTime="8.10"/>
    </personinfo>
    <tripinfo id="C2_1.0" depart="40.30" departLane="440471861#0_2" departPos="8.10" departPosLat="0.00" departSpeed="27.78" departDelay="0.00" arrival="159.30" arrivalLane="-145894807#0_1" arrivalPos="260.97" arrivalPosLat="0.00" arrivalSpeed="8.32" duration="119.00" routeLength="1096.91" waitingTime="12.10" waitingCount="2" stopTime="0.00" timeLoss="31.76" rerouteNo="1" devices="tripinfo_C2_1.0 routing_C2_1.0" vType="jeep" speedFactor="1.00" vaporized=""/>
    <tripinfo id="B2_1.0" depart="13.90" departLane="-361257727#0_1" departPos="5.10" departPosLat="0.00" departSpeed="9.67" departDelay="0.00" arrival="161.10" arrivalLane="-440471861#0_1" arrivalPos="31.49" arrivalPosLat="-0.00" arrivalSpeed="32.21" duration="147.20" routeLength="1414.29" waitingTime="33.20" waitingCount="1" stopTime="0.00" timeLoss="44.74" rerouteNo="1" devices="tripinfo_B2_1.0 routing_B2_1.0" vType="car" speedFactor="1.16" vaporized=""/>
    <tripinfo id="C2_1.1" depart="54.60" departLane="440471861#0_2" departPos="5.10" departPosLat="0.00" departSpeed="28.59" departDelay="0.00" arrival="161.60" arrivalLane="-145894807#0_1" arrivalPos="260.97" arrivalPosLat="0.00" arrivalSpeed="8.55" duration="107.00" routeLength="1099.91" waitingTime="0.00" waitingCount="0" stopTime="0.00" timeLoss="22.10" rerouteNo="1" devices="tripinfo_C2_1.1 routing_C2_1.1" vType="car" speedFactor="1.03" vaporized=""/>
    <tripinfo id="A3_1.0" depart="32.60" departLane="-793339796#2_2" departPos="5.10" departPosLat="0.00" departSpeed="24.06" departDelay="1.60" arrival="163.00" arrivalLane="-140483224#1_2" arrivalPos="64.17" arrivalPosLat="0.00" arrivalSpeed="24.06" duration="130.40" routeLength="1081.71" waitingTime="60.70" waitingCount="3" stopTime="0.00" timeLoss="83.70" rerouteNo="1" devices="tripinfo_A3_1.0 routing_A3_1.0" vType="car" speedFactor="0.87" vaporized=""/>
    <tripinfo id="A3_1.1" depart="66.90" departLane="-793339796#2_2" departPos="8.10" departPosLat="0.00" departSpeed="27.78" departDelay="5.90" arrival="170.20" arrivalLane="-140483224#1_1" arrivalPos="64.17" arrivalPosLat="-0.00" arrivalSpeed="27.77" duration="103.30" routeLength="1078.71" waitingTime="26.10" waitingCount="2" stopTime="0.00" timeLoss="62.96" rerouteNo="1" devices="tripinfo_A3_1.1 routing_A3_1.1" vType="jeep" speedFactor="1.00" vaporized=""/>
    <personinfo id="pf_2.7" depart="126.00" type="ped" speedFactor="0.97" duration="47.00" waitingTime="21.90" timeLoss="24.51" traveltime="47.00">
        <walk depart="126.00" departPos="15.72" arrival="173.00" arrivalPos="4.00" duration="47.00" routeLength="30.33" timeLoss="24.51" maxSpeed="1.35" waitingTime="21.90"/>
    </personinfo>
    <personinfo id="pf_2.8" depart="144.00" type="ped" speedFactor="0.96" duration="29.00" waitingTime="3.80" timeLoss="6.30" traveltime="29.00">
        <walk depart="144.00" departPos="15.72" arrival="173.00" arrivalPos="4.00" duration="29.00" routeLength="30.33" timeLoss="6.30" maxSpeed="1.34" waitingTime="3.80"/>
    </personinfo>
    <tripinfo id="D1_1.1" depart="47.90" departLane="140483224#1_1" departPos="7.20" departPosLat="0.00" departSpeed="26.19" departDelay="0.00" arrival="184.70" arrivalLane="-793339796#2_2" arrivalPos="83.13" arrivalPosLat="0.00" arrivalSpeed="25.22" duration="136.80" routeLength="1646.35" waitingTime="26.50" waitingCount="3" stopTime="0.00" timeLoss="71.52" rerouteNo="1" devices="tripinfo_D1_1.1 routing_D1_1.1" vType="truck" speedFactor="0.94" vaporized=""/>
    <personinfo id="pf_2.9" depart="162.00" type="ped" speedFactor="0.98" duration="24.60" waitingTime="0.00" timeLoss="2.41" traveltime="24.60">
        <walk depart="162.00" departPos="15.72" arrival="186.60" arrivalPos="4.00" duration="24.60" routeLength="30.33" timeLoss="2.41" maxSpeed="1.37" waitingTime="0.00"/>
    </personinfo>
    <tripinfo id="D2_1.0" depart="67.30" departLane="140483224#1_1" departPos="5.10" departPosLat="0.00" departSpeed="22.42" departDelay="0.00" arrival="188.10" arrivalLane="-145894807#0_1" arrivalPos="260.97" arrivalPosLat="0.00" arrivalSpeed="6.67" duration="120.80" routeLength="1109.85" waitingTime="2.80" waitingCount="1" stopTime="0.00" timeLoss="12.54" rerouteNo="1" devices="tripinfo_D2_1.0 routing_D2_1.0" vType="car" speedFactor="0.81" vaporized=""/>
    <tripinfo id="C3_1.4" depart="109.30" departLane="440471861#0_1" departPos="5.10" departPosLat="0.00" departSpeed="32.64" departDelay="0.00" arrival="200.20" arrivalLane="-140483224#1_2" arrivalPos="64.17" arrivalPosLat="0.00" arrivalSpeed="32.52" duration="90.90" routeLength="1053.93" waitingTime="30.30" waitingCount="2" stopTime="0.00" timeLoss="57.64" rerouteNo="1" devices="tripinfo_C3_1.4 routing_C3_1.4" vType="car" speedFactor="1.17" vaporized=""/>
    <tripinfo id="C3_1.3" depart="87.10" departLane="440471861#0_1" departPos="2.30" departPosLat="0.00" departSpeed="27.62" departDelay="0.00" arrival="206.00" arrivalLane="-140483224#1_1" arrivalPos="64.17" arrivalPosLat="-0.00" arrivalSpeed="27.61" duration="118.90" routeLength="1056.73" waitingTime="57.10" waitingCount="2" stopTime="0.00" timeLoss="79.48" rerouteNo="1" devices="tripinfo_C3_1.3 routing_C3_1.3" vType="tricycle" speedFactor="0.99" vaporized=""/>
    <personinfo id="pf_2.10" depart="180.00" type="ped" speedFactor="1.10" duration="31.30" waitingTime="9.30" timeLoss="11.53" traveltime="31.30">
        <walk depart="180.00" departPos="15.72" arrival="211.30" arrivalPos="4.00" duration="31.30" routeLength="30.33" timeLoss="11.53" maxSpeed="1.53" waitingTime="9.30"/>
    </personinfo>
    <tripinfo id="B1_1.0" depart="75.60" departLane="-361257727#0_1" departPos="5.10" departPosLat="0.00" departSpeed="8.27" departDelay="0.00" arrival="226.20" arrivalLane="-793339796#2_2" arrivalPos="83.13" arrivalPosLat="0.00" arrivalSpeed="27.51" duration="150.60" routeLength="1915.62" waitingTime="0.00" waitingCount="0" stopTime="0.00" timeLoss="14.96" rerouteNo="1" devices="tripinfo_B1_1.0 routing_B1_1.0" vType="car" speedFactor="0.99" vaporized=""/>
    <tripinfo id="A3_1.3" depart="173.20" departLane="-793339796#2_1" departPos="2.30" departPosLat="0.00" departSpeed="28.75" departDelay="0.00" arrival="230.30" arrivalLane="-140483224#1_1" arrivalPos="64.17" arrivalPosLat="-0.00" arrivalSpeed="28.55" duration="57.10" routeLength="1084.51" waitingTime="0.10" waitingCount="1" stopTime="0.00" timeLoss="17.89" rerouteNo="1" devices="tripinfo_A3_1.3 routing_A3_1.3" vType="motorcycle" speedFactor="1.03" vaporized=""/>
    <tripinfo id="A3_1.2" depart="127.10" departLane="-793339796#2_2" departPos="5.10" departPosLat="0.00" departSpeed="27.22" departDelay="0.00" arrival="230.70" arrivalLane="-140483224#1_2" arrivalPos="64.17" arrivalPosLat="-0.00" arrivalSpeed="31.80" duration="103.60" routeLength="1081.71" waitingTime="51.00" waitingCount="2" stopTime="0.00" timeLoss="68.32" rerouteNo="1" devices="tripinfo_A3_1.2 routing_A3_1.2" vType="car" speedFactor="1.15" vaporized=""/>
    <tripinfo id="A2_1.4" depart="126.50" departLane="-793339796#2_1" departPos="8.10" departPosLat="0.00" departSpeed="27.78" departDelay="0.70" arrival="231.80" arrivalLane="-440471861#0_1" arrivalPos="31.49" arrivalPosLat="0.00" arrivalSpeed="27.77" duration="105.30" routeLength="1078.89" waitingTime="47.80" waitingCount="1" stopTime="0.00" timeLoss="66.42" rerouteNo="1" devices="tripinfo_A2_1.4 routing_A2_1.4" vType="jeep" speedFactor="1.00" vaporized=""/>
    <personinfo id="pf_2.11" depart="198.00" type="ped" speedFactor="1.04" duration="34.60" waitingTime="11.20" timeLoss="13.53" traveltime="34.60">
        <walk depart="198.00" departPos="15.72" arrival="232.60" arrivalPos="4.00" duration="34.60" routeLength="30.33" timeLoss="13.53" maxSpeed="1.44" waitingTime="11.20"/>
    </personinfo>
    <tripinfo id="A2_1.5" depart="129.90" departLane="-793339796#2_1" departPos="5.10" departPosLat="0.00" departSpeed="27.23" departDelay="0.00" arrival="233.10" arrivalLane="-440471861#0_1" arrivalPos="31.49" arrivalPosLat="0.00" arrivalSpeed="27.12" duration="103.20" routeLength="1081.89" waitingTime="40.80" waitingCount="1" stopTime="0.00" timeLoss="63.47" rerouteNo="1" devices="tripinfo_A2_1.5 routing_A2_1.5" vType="car" speedFactor="0.98" vaporized=""/>
    <tripinfo id="C1_1.5" depart="131.40" departLane="440471861#0_1" departPos="5.10" departPosLat="0.00" departSpeed="26.95" departDelay="0.00" arrival="238.60" arrivalLane="-793339796#2_2" arrivalPos="83.13" arrivalPosLat="0.00" arrivalSpeed="26.92" duration="107.20" routeLength="1654.03" waitingTime="6.10" waitingCount="1" stopTime="0.00" timeLoss="44.64" rerouteNo="1" devices="tripinfo_C1_1.5 routing_C1_1.5" vType="car" speedFactor="0.97" vaporized=""/>
    <personinfo id="pf_2.12" depart="216.00" type="ped" speedFactor="1.00" duration="24.20" waitingTime="0.00" timeLoss="2.42" traveltime="24.20">
        <walk depart="216.00" departPos="15.72" arrival="240.20" arrivalPos="4.00" duration="24.20" routeLength="30.33" timeLoss="2.42" maxSpeed="1.39" waitingTime="0.00"/>
    </personinfo>
    <tripinfo id="C1_1.4" depart="125.70" departLane="440471861#0_1" departPos="8.10" departPosLat="0.00" departSpeed="27.78" departDelay="0.00" arrival="249.20" arrivalLane="-793339796#2_2" arrivalPos="83.13" arrivalPosLat="0.00" arrivalSpeed="24.42" duration="123.50" routeLength="1651.03" waitingTime="17.50" waitingCount="2" stopTime="0.00" timeLoss="62.97" rerouteNo="1" devices="tripinfo_C1_1.4 routing_C1_1.4" vType="jeep" speedFactor="1.00" vaporized=""/>
    <tripinfo id="B2_1.1" depart="62.00" departLane="-361257727#0_1" departPos="7.20" departPosLat="0.00" departSpeed="8.80" departDelay="0.00" arrival="250.80" arrivalLane="-440471861#0_2" arrivalPos="31.49" arrivalPosLat="0.00" arrivalSpeed="29.36" duration="188.80" routeLength="1412.19" waitingTime="56.80" waitingCount="1" stopTime="0.00" timeLoss="76.45" rerouteNo="1" devices="tripinfo_B2_1.1 routing_B2_1.1" vType="truck" speedFactor="1.06" vaporized=""/>
    <tripinfo id="A1_1.0" depart="162.50" departLane="-793339796#2_1" departPos="5.10" departPosLat="0.00" departSpeed="29.17" departDelay="4.60" arrival="251.80" arrivalLane="-145894807#0_1" arrivalPos="260.97" arrivalPosLat="0.00" arrivalSpeed="8.63" duration="89.30" routeLength="1057.45" waitingTime="0.00" waitingCount="0" stopTime="0.00" timeLoss="4.07" rerouteNo="1" devices="tripinfo_A1_1.0 routing_A1_1.0" vType="car" speedFactor="1.05" vaporized=""/>
    <tripinfo id="C1_1.3" depart="82.10" departLane="440471861#0_1" departPos="8.10" departPosLat="0.00" departSpeed="27.78" departDelay="0.00" arrival="253.30" arrivalLane="-793339796#2_2" arrivalPos="83.13" arrivalPosLat="0.00" arrivalSpeed="24.47" duration="171.20" routeLength="1651.03" waitingTime="64.20" waitingCount="2" stopTime="0.00" timeLoss="110.58" rerouteNo="1" devices="tripinfo_C1_1.3 routing_C1_1.3" vType="jeep" speedFactor="1.00" vaporized=""/>
    <tripinfo id="D2_1.1" depart="93.70" departLane="140483224#1_1" departPos="5.10" departPosLat="0.00" departSpeed="28.25" departDelay="0.00" arrival="255.40" arrivalLane="-145894807#0_1" arrivalPos="260.97" arrivalPosLat="0.00" arrivalSpeed="8.45" duration="161.70" routeLength="1109.85" waitingTime="50.70" waitingCount="4" stopTime="0.00" timeLoss="75.76" rerouteNo="1" devices="tripinfo_D2_1.1 routing_D2_1.1" vType="car" speedFactor="1.02" vaporized=""/>
    <tripinfo id="C1_1.6" depart="142.00" departLane="440471861#0_1" departPos="8.10" departPosLat="0.00" departSpeed="27.78" departDelay="0.00" arrival="256.90" arrivalLane="-793339796#2_1" arrivalPos="83.13" arrivalPosLat="-0.00" arrivalSpeed="23.37" duration="114.90" routeLength="1651.03" waitingTime="4.20" waitingCount="1" stopTime="0.00" timeLoss="54.31" rerouteNo="1" devices="tripinfo_C1_1.6 routing_C1_1.6" vType="jeep" speedFactor="1.00" vaporized=""/>
    <tripinfo id="D1_1.5" depart="117.10" departLane="140483224#1_1" departPos="2.30" departPosLat="0.00" departSpeed="30.40" departDelay="0.00" arrival="258.70" arrivalLane="-793339796#2_1" arrivalPos="83.13" arrivalPosLat="-0.00" arrivalSpeed="30.24" duration="141.60" routeLength="1651.25" waitingTime="44.00" waitingCount="3" stopTime="0.00" timeLoss="85.17" rerouteNo="1" devices="tripinfo_D1_1.5 routing_D1_1.5" vType="motorcycle" speedFactor="1.09" vaporized=""/>
    <tripinfo id="D1_1.2" depart="74.50" departLane="140483224#1_1" departPos="8.10" departPosLat="0.00" departSpeed="27.78" departDelay="0.00" arrival="260.40" arrivalLane="-793339796#2_2" arrivalPos="83.13" arrivalPosLat="0.00" arrivalSpeed="24.65" duration="185.90" routeLength="1645.45" waitingTime="71.40" waitingCount="2" stopTime="0.00" timeLoss="124.30" rerouteNo="1" devices="tripinfo_D1_1.2 routing_D1_1.2" vType="jeep" speedFactor="1.00" vaporized=""/>
    <tripinfo id="D1_1.3" depart="92.30" departLane="140483224#1_1" departPos="5.10" departPosLat="0.00" departSpeed="29.18" departDelay="0.00" arrival="261.70" arrivalLane="-793339796#2_2" arrivalPos="83.13" arrivalPosLat="0.00" arrivalSpeed="26.44" duration="169.40" routeLength="1648.45" waitingTime="50.20" waitingCount="2" stopTime="0.00" timeLoss="110.64" rerouteNo="1" devices="tripinfo_D1_1.3 routing_D1_1.3" vType="car" speedFactor="1.05" vaporized=""/>
    <tripinfo id="B3_1.0" depart="127.70" departLane="-361257727#0_1" departPos="8.10" departPosLat="0.00" departSpeed="8.33" departDelay="0.00" arrival="270.80" arrivalLane="-140483224#1_1" arrivalPos="64.17" arrivalPosLat="0.00" arrivalSpeed="27.76" duration="143.10" routeLength="1424.09" waitingTime="0.50" waitingCount="1" stopTime="0.00" timeLoss="24.34" rerouteNo="1" devices="tripinfo_B3_1.0 routing_B3_1.0" vType="jeep" speedFactor="1.00" vaporized=""/>
    <tripinfo id="A3_1.4" depart="193.40" departLane="-793339796#2_1" departPos="12.10" departPosLat="0.00" departSpeed="27.78" departDelay="0.00" arrival="270.90" arrivalLane="-140483224#1_2" arrivalPos="64.17" arrivalPosLat="0.00" arrivalSpeed="27.75" duration="77.50" routeLength="1074.71" waitingTime="17.50" waitingCount="1" stopTime="0.00" timeLoss="37.20" rerouteNo="1" devices="tripinfo_A3_1.4 routing_A3_1.4" vType="bus" speedFactor="1.00" vaporized=""/>
    <personinfo id="pf_2.13" depart="234.00" type="ped" speedFactor="1.10" duration="38.00" waitingTime="16.00" timeLoss="18.18" traveltime="38.00">
        <walk depart="234.00" departPos="15.72" arrival="272.00" arrivalPos="4.00" duration="38.00" routeLength="30.33" timeLoss="18.18" maxSpeed="1.53" waitingTime="16.00"/>
    </personinfo>
    <tripinfo id="C3_1.6" depart="208.00" departLane="440471861#0_1" departPos="5.10" departPosLat="0.00" departSpeed="28.79" departDelay="0.00" arrival="272.20" arrivalLane="-140483224#1_2" arrivalPos="64.17" arrivalPosLat="0.00" arrivalSpeed="28.68" duration="64.20" routeLength="1053.93" waitingTime="4.40" waitingCount="1" stopTime="0.00" timeLoss="26.49" rerouteNo="1" devices="tripinfo_C3_1.6 routing_C3_1.6" vType="car" speedFactor="1.04" vaporized=""/>
    <tripinfo id="C3_1.5" depart="156.50" departLane="440471861#0_1" departPos="5.10" departPosLat="0.00" departSpeed="24.94" departDelay="0.00" arrival="272.60" arrivalLane="-140483224#1_1" arrivalPos="64.17" arrivalPosLat="-0.00" arrivalSpeed="24.91" duration="116.10" routeLength="1053.93" waitingTime="57.40" waitingCount="1" stopTime="0.00" timeLoss="72.50" rerouteNo="1" devices="tripinfo_C3_1.5 routing_C3_1.5" vType="car" speedFactor="0.90" vaporized=""/>
    <personinfo id="pf_1.0" depart="0.00" type="ped" speedFactor="1.06" duration="272.80" waitingTime="24.70" timeLoss="49.89" traveltime="272.80">
        <walk depart="0.00" departPos="25.00" arrival="272.80" arrivalPos="4.00" duration="272.80" routeLength="328.17" timeLoss="49.89" maxSpeed="1.47" waitingTime="24.70"/>
    </personinfo>
    <tripinfo id="D1_1.4" depart="112.20" departLane="140483224#1_1" departPos="8.10" departPosLat="0.00" departSpeed="27.78" departDelay="0.00" arrival="276.40" arrivalLane="-793339796#2_2" arrivalPos="83.13" arrivalPosLat="0.00" arrivalSpeed="24.30" duration="164.20" routeLength="1645.45" waitingTime="46.20" waitingCount="2" stopTime="0.00" timeLoss="102.63" rerouteNo="1" devices="tripinfo_D1_1.4 routing_D1_1.4" vType="jeep" speedFactor="1.00" vaporized=""/>
    <tripinfo id="D2_1.2" depart="134.80" departLane="140483224#1_1" departPos="2.30" departPosLat="0.00" departSpeed="22.58" departDelay="0.00" arrival="276.90" arrivalLane="-145894807#0_1" arrivalPos="260.97" arrivalPosLat="0.00" arrivalSpeed="6.68" duration="142.10" routeLength="1112.65" waitingTime="20.90" waitingCount="1" stopTime="0.00" timeLoss="34.48" rerouteNo="1" devices="tripinfo_D2_1.2 routing_D2_1.2" vType="motorcycle" speedFactor="0.81" vaporized=""/>
    <personinfo id="pf_2.14" depart="252.00" type="ped" speedFactor="0.83" duration="29.10" waitingTime="0.00" timeLoss="2.86" traveltime="29.10">
        <walk depart="252.00" departPos="15.72" arrival="281.10" arrivalPos="4.00" duration="29.10" routeLength="30.33" timeLoss="2.86" maxSpeed="1.16" waitingTime="0.00"/>
    </personinfo>
    <tripinfo id="D3_1.1" depart="179.60" departLane="140483224#1_1" departPos="2.30" departPosLat="0.00" departSpeed="26.57" departDelay="0.00" arrival="282.00" arrivalLane="-440471861#0_2" arrivalPos="31.49" arrivalPosLat="0.00" arrivalSpeed="26.33" duration="102.40" routeLength="1071.89" waitingTime="53.50" waitingCount="2" stopTime="0.00" timeLoss="60.52" rerouteNo="1" devices="tripinfo_D3_1.1 routing_D3_1.1" vType="motorcycle" speedFactor="0.96" vaporized=""/>
    <tripinfo id="D3_1.2" depart="201.70" departLane="140483224#1_2" departPos="5.10" departPosLat="0.00" departSpeed="29.75" departDelay="0.00" arrival="285.00" arrivalLane="-440471861#0_2" arrivalPos="31.49" arrivalPosLat="0.00" arrivalSpeed="29.67" duration="83.30" routeLength="1069.09" waitingTime="31.50" waitingCount="2" stopTime="0.00" timeLoss="45.99" rerouteNo="1" devices="tripinfo_D3_1.2 routing_D3_1.2" vType="car" speedFactor="1.07" vaporized=""/>
    <tripinfo id="D3_1.3" depart="206.80" departLane="140483224#1_1" departPos="2.30" departPosLat="0.00" departSpeed="25.98" departDelay="0.00" arrival="287.80" arrivalLane="-440471861#0_2" arrivalPos="31.49" arrivalPosLat="0.00" arrivalSpeed="25.70" duration="81.00" routeLength="1071.89" waitingTime="18.80" waitingCount="2" stopTime="0.00" timeLoss="38.10" rerouteNo="1" devices="tripinfo_D3_1.3 routing_D3_1.3" vType="motorcycle" speedFactor="0.94" vaporized=""/>
    <tripinfo id="C1_1.8" depart="227.40" departLane="440471861#0_1" departPos="5.10" departPosLat="0.00" departSpeed="26.26" departDelay="0.00" arrival="301.40" arrivalLane="-793339796#2_2" arrivalPos="83.13" arrivalPosLat="0.00" arrivalSpeed="26.16" duration="74.00" routeLength="1654.03" waitingTime="0.00" waitingCount="0" stopTime="0.00" timeLoss="9.87" rerouteNo="1" devices="tripinfo_C1_1.8 routing_C1_1.8" vType="car" speedFactor="0.95" vaporized=""/>
    <personinfo id="pf_2.15" depart="270.00" type="ped" speedFactor="1.09" duration="32.70" waitingTime="10.30" timeLoss="12.62" traveltime="32.70">