<?xml version="1.0" encoding="UTF-8"?>

<!-- generated on 2025-11-18 13:55:34 by Eclipse SUMO sumo Version 1.24.0
<sumoConfiguration xmlns:xsi="http://www.w3.org/2001/XMLSchema-instance" xsi:noNamespaceSchemaLocation="http://sumo.dlr.de/xsd/sumoConfiguration.xsd">

    <input>
        <net-file value="Olivarez_traci\network/map.net.xml"/>
        <route-files value="Olivarez_traci\demand\flows_traffic_jam.rou.xml"/>
        <additional-files value="Olivarez_traci\additionals/map.poly.xml,Olivarez_traci\ additionals/detectors.add.xml"/>
    </input>

    <output>
        <tripinfo-output value="Olivarez_traci\output_A2C\SP_A2C_trips.xml"/>
        <statistic-output value="Olivarez_traci\output_A2C\SP_A2C_stats.xml"/>
    </output>

    <time>
        <begin value="0"/>
        <end value="10800"/>
        <step-length value="0.1"/>
    </time>

    <processing>
        <lateral-resolution value="0.1"/>
        <collision.action value="none"/>
        <collision.check-junctions value="false"/>
        <collision.mingap-factor value="0"/>
    </processing>

    <report>
        <no-warnings value="true"/>
    </report>

    <traci_server>
        <remote-port value="62284"/>
    </traci_server>

    <gui_only>
        <delay value="0"/>
    </gui_only>

</sumoConfiguration>
-->

<tripinfos xmlns:xsi="http://www.w3.org/2001/XMLSchema-instance" xsi:noNamespaceSchemaLocation="http://sumo.dlr.de/xsd/tripinfo_file.xsd">
    <personinfo id="pf_2.1" depart="9.00" type="ped" speedFactor="1.03" duration="41.40" waitingTime="17.60" timeLoss="20.24" traveltime="41.40">
        <walk depart="9.00" departPos="15.72" arrival="50.40" arrivalPos="4.00" duration="41.40" routeLength="30.33" timeLoss="20.24" maxSpeed="1.43" waitingTime="17.60"/>
    </personinfo>
    <personinfo id="pf_2.2" depart="18.00" type="ped" speedFactor="1.02" duration="32.50" waitingTime="8.60" timeLoss="11.05" traveltime="32.50">
        <walk depart="18.00" departPos="15.72" arrival="50.50" arrivalPos="4.00" duration="32.50" routeLength="30.33" timeLoss="11.05" maxSpeed="1.41" waitingTime="8.60"/>
    </personinfo>
    <personinfo id="pf_2.3" depart="27.00" type="ped" speedFactor="1.09" duration="23.90" waitingTime="1.20" timeLoss="3.86" traveltime="23.90">
        <walk depart="27.00" departPos="15.72" arrival="50.90" arrivalPos="4.00" duration="23.90" routeLength="30.33" timeLoss="3.86" maxSpeed="1.51" waitingTime="1.20"/>
    </personinfo>
    <personinfo id="pf_2.0" depart="0.00" type="ped" speedFactor="0.98" duration="51.20" waitingTime="26.40" timeLoss="28.85" traveltime="51.20">
        <walk depart="0.00" departPos="15.72" arrival="51.20" arrivalPos="4.00" duration="51.20" routeLength="30.33" timeLoss="28.85" maxSpeed="1.36" waitingTime="26.40"/>
    </personinfo>
    <tripinfo id="A2_1.0" depart="3.00" departLane="-793339796#2_1" departPos="5.10" departPosLat="0.00" departSpeed="30.27" departDelay="0.00" arrival="60.40" arrivalLane="-440471861#0_1" arrivalPos="31.49" arrivalPosLat="0.00" arrivalSpeed="30.27" duration="57.40" routeLength="1081.89" waitingTime="10.90" waitingCount="1" stopTime="0.00" timeLoss="21.66" rerouteNo="1" devices="tripinfo_A2_1.0 routing_A2_1.0" vType="car" speedFactor="1.09" vaporized=""/>
    <personinfo id="pf_2.4" depart="36.00" type="ped" speedFactor="1.10" duration="33.80" waitingTime="11.60" timeLoss="13.94" traveltime="33.80">
        <walk depart="36.00" departPos="15.72" arrival="69.80" arrivalPos="4.00" duration="33.80" routeLength="30.33" timeLoss="13.94" maxSpeed="1.53" waitingTime="11.60"/>
    </personinfo>
    <tripinfo id="A2_1.1" depart="6.90" departLane="-793339796#2_1" departPos="8.10" departPosLat="0.00" departSpeed="27.78" departDelay="0.00" arrival="70.20" arrivalLane="-440471861#0_1" arrivalPos="31.49" arrivalPosLat="0.00" arrivalSpeed="27.77" duration="63.30" routeLength="1078.89" waitingTime="1.70" waitingCount="1" stopTime="0.00" timeLoss="24.37" rerouteNo="1" devices="tripinfo_A2_1.1 routing_A2_1.1" vType="jeep" speedFactor="1.00" vaporized=""/>
    <tripinfo id="A2_1.2" depart="8.90" departLane="-793339796#2_2" departPos="8.10" departPosLat="0.00" departSpeed="27.78" departDelay="0.00" arrival="70.30" arrivalLane="-440471861#0_2" arrivalPos="31.49" arrivalPosLat="0.00" arrivalSpeed="27.74" duration="61.40" routeLength="1078.89" waitingTime="3.40" waitingCount="1" stopTime="0.00" timeLoss="22.52" rerouteNo="1" devices="tripinfo_A2_1.2 routing_A2_1.2" vType="jeep" speedFactor="1.00" vaporized=""/>
    <personinfo id="pf_2.5" depart="45.00" type="ped" speedFactor="0.95" duration="27.10" waitingTime="1.40" timeLoss="4.18" traveltime="27.10">
        <walk depart="45.00" departPos="15.72" arrival="72.10" arrivalPos="4.00" duration="27.10" routeLength="30.33" timeLoss="4.18" maxSpeed="1.32" waitingTime="1.40"/>
    </personinfo>
    <personinfo id="pf_2.6" depart="54.00" type="ped" speedFactor="0.96" duration="25.20" waitingTime="0.00" timeLoss="2.43" traveltime="25.20">
        <walk depart="54.00" departPos="15.72" arrival="79.20" arrivalPos="4.00" duration="25.20" routeLength="30.33" timeLoss="2.43" maxSpeed="1.33" waitingTime="0.00"/>
    </personinfo>
    <tripinfo id="D1_1.0" depart="1.20" departLane="140483224#1_1" departPos="2.30" departPosLat="0.00" departSpeed="23.35" departDelay="0.00" arrival="82.10" arrivalLane="-793339796#2_2" arrivalPos="83.13" arrivalPosLat="0.00" arrivalSpeed="23.14" duration="80.90" routeLength="1651.25" waitingTime="0.00" waitingCount="0" stopTime="0.00" timeLoss="7.33" rerouteNo="1" devices="tripinfo_D1_1.0 routing_D1_1.0" vType="motorcycle" speedFactor="0.84" vaporized=""/>
    <tripinfo id="C3_1.0" depart="6.90" departLane="440471861#0_1" departPos="2.30" departPosLat="0.00" departSpeed="21.48" departDelay="0.00" arrival="100.80" arrivalLane="-140483224#1_1" arrivalPos="64.17" arrivalPosLat="-0.00" arrivalSpeed="24.31" duration="93.90" routeLength="1056.73" waitingTime="44.50" waitingCount="1" stopTime="0.00" timeLoss="49.71" rerouteNo="1" devices="tripinfo_C3_1.0 routing_C3_1.0" vType="motorcycle" speedFactor="0.89" vaporized=""/>
    <tripinfo id="C3_1.2" depart="22.80" departLane="440471861#0_1" departPos="2.30" departPosLat="0.00" departSpeed="29.85" departDelay="0.00" arrival="102.50" arrivalLane="-140483224#1_1" arrivalPos="64.17" arrivalPosLat="-0.00" arrivalSpeed="29.64" duration="79.70" routeLength="1056.73" waitingTime="30.00" waitingCount="1" stopTime="0.00" timeLoss="43.25" rerouteNo="1" devices="tripinfo_C3_1.2 routing_C3_1.2" vType="motorcycle" speedFactor="1.07" vaporized=""/>
    <tripinfo id="C3_1.1" depart="8.60" departLane="440471861#0_1" departPos="2.30" departPosLat="0.00" departSpeed="23.68" departDelay="0.00" arrival="107.10" arrivalLane="-140483224#1_1" arrivalPos="64.17" arrivalPosLat="-0.00" arrivalSpeed="23.61" duration="98.50" routeLength="1056.73" waitingTime="39.60" waitingCount="1" stopTime="0.00" timeLoss="52.51" rerouteNo="1" devices="tripinfo_C3_1.1 routing_C3_1.1" vType="tricycle" speedFactor="0.85" vaporized=""/>
    <personinfo id="pf_2.8" depart="72.00" type="ped" speedFactor="1.01" duration="39.50" waitingTime="15.30" timeLoss="17.97" traveltime="39.50">
        <walk depart="72.00" departPos="15.72" arrival="111.50" arrivalPos="4.00" duration="39.50" routeLength="30.33" timeLoss="17.97" maxSpeed="1.41" waitingTime="15.30"/>
    </personinfo>
    <personinfo id="pf_2.9" depart="81.00" type="ped" speedFactor="0.99" duration="30.80" waitingTime="6.20" timeLoss="8.81" traveltime="30.80">
        <walk depart="81.00" departPos="15.72" arrival="111.80" arrivalPos="4.00" duration="30.80" routeLength="30.33" timeLoss="8.81" maxSpeed="1.38" waitingTime="6.20"/>
    </personinfo>
    <personinfo id="pf_2.10" depart="90.00" type="ped" speedFactor="1.10" duration="21.90" waitingTime="0.00" timeLoss="2.12" traveltime="21.90">
        <walk depart="90.00" departPos="15.72" arrival="111.90" arrivalPos="4.00" duration="21.90" routeLength="30.33" timeLoss="2.12" maxSpeed="1.53" waitingTime="0.00"/>
    </personinfo>
    <tripinfo id="C3_1.3" depart="47.20" departLane="440471861#0_1" departPos="7.20" departPosLat="0.00" departSpeed="27.14" departDelay="0.00" arrival="112.90" arrivalLane="-140483224#1_1" arrivalPos="64.17" arrivalPosLat="-0.00" arrivalSpeed="27.13" duration="65.70" routeLength="1051.83" waitingTime="3.90" waitingCount="1" stopTime="0.00" timeLoss="25.74" rerouteNo="1" devices="tripinfo_C3_1.3 routing_C3_1.3" vType="truck" speedFactor="0.98" vaporized=""/>
    <personinfo id="pf_2.7" depart="63.00" type="ped" speedFactor="0.86" duration="51.20" waitingTime="23.00" timeLoss="25.81" traveltime="51.20">
        <walk depart="63.00" departPos="15.72" arrival="114.20" arrivalPos="4.00" duration="51.20" routeLength="30.33" timeLoss="25.81" maxSpeed="1.19" waitingTime="23.00"/>
    </personinfo>
    <tripinfo id="C3_1.4" depart="51.90" departLane="440471861#0_1" departPos="7.20" departPosLat="0.00" departSpeed="25.35" departDelay="0.00" arrival="116.20" arrivalLane="-140483224#1_1" arrivalPos="64.17" arrivalPosLat="-0.00" arrivalSpeed="25.30" duration="64.30" routeLength="1051.83" waitingTime="0.00" waitingCount="0" stopTime="0.00" timeLoss="21.47" rerouteNo="1" devices="tripinfo_C3_1.4 routing_C3_1.4" vType="truck" speedFactor="0.91" vaporized=""/>
    <tripinfo id="C1_1.1" depart="30.30" departLane="440471861#0_1" departPos="2.30" departPosLat="0.00" departSpeed="30.61" departDelay="0.00" arrival="121.00" arrivalLane="-793339796#2_2" arrivalPos="83.13" arrivalPosLat="0.00" arrivalSpeed="30.37" duration="90.70" routeLength="1656.83" waitingTime="24.80" waitingCount="1" stopTime="0.00" timeLoss="35.57" rerouteNo="1" devices="tripinfo_C1_1.1 routing_C1_1.1" vType="motorcycle" speedFactor="1.10" vaporized=""/>
    <personinfo id="pf_2.11" depart="99.00" type="ped" speedFactor="0.98" duration="24.80" waitingTime="0.00" timeLoss="2.45" traveltime="24.80">
        <walk depart="99.00" departPos="15.72" arrival="123.80" arrivalPos="4.00" duration="24.80" routeLength="30.33" timeLoss="2.45" maxSpeed="1.36" waitingTime="0.00"/>
    </personinfo>
    <tripinfo id="D3_1.0" depart="15.30" departLane="140483224#1_2" departPos="8.10" departPosLat="0.00" departSpeed="27.78" departDelay="0.00" arrival="130.80" arrivalLane="-440471861#0_2" arrivalPos="31.49" arrivalPosLat="0.00" arrivalSpeed="27.76" duration="115.50" routeLength="1066.09" waitingTime="58.10" waitingCount="1" stopTime="0.00" timeLoss="75.62" rerouteNo="1" devices="tripinfo_D3_1.0 routing_D3_1.0" vType="jeep" speedFactor="1.00" vaporized=""/>
    <tripinfo id="C1_1.0" depart="6.60" departLane="440471861#0_1" departPos="5.10" departPosLat="0.00" departSpeed="28.06" departDelay="0.00" arrival="132.10" arrivalLane="-793339796#2_2" arrivalPos="83.13" arrivalPosLat="0.00" arrivalSpeed="27.93" duration="125.50" routeLength="1654.03" waitingTime="47.20" waitingCount="1" stopTime="0.00" timeLoss="65.47" rerouteNo="1" devices="tripinfo_C1_1.0 routing_C1_1.0" vType="car" speedFactor="1.01" vaporized=""/>
    <tripinfo id="C1_1.2" depart="35.30" departLane="440471861#0_1" departPos="5.10" departPosLat="0.00" departSpeed="30.18" departDelay="0.00" arrival="135.40" arrivalLane="-793339796#2_2" arrivalPos="83.13" arrivalPosLat="0.00" arrivalSpeed="30.11" duration="100.10" routeLength="1654.03" waitingTime="16.60" waitingCount="1" stopTime="0.00" timeLoss="44.35" rerouteNo="1" devices="tripinfo_C1_1.2 routing_C1_1.2" vType="car" speedFactor="1.09" vaporized=""/>
    <tripinfo id="C3_1.5" depart="54.60" departLane="440471861#0_1" departPos="5.10" departPosLat="0.00" departSpeed="28.57" departDelay="0.00" arrival="140.50" arrivalLane="-140483224#1_2" arrivalPos="64.17" arrivalPosLat="0.00" arrivalSpeed="28.48" duration="85.90" routeLength="1053.93" waitingTime="21.60" waitingCount="1" stopTime="0.00" timeLoss="47.90" rerouteNo="1" devices="tripinfo_C3_1.5 routing_C3_1.5" vType="car" speedFactor="1.03" vaporized=""/>
    <tripinfo id="C2_1.0" depart="40.30" departLane="440471861#0_2" departPos="5.10" departPosLat="0.00" departSpeed="31.32" departDelay="0.00" arrival="142.30" arrivalLane="-145894807#0_1" arrivalPos="260.97" arrivalPosLat="0.00" arrivalSpeed="9.31" duration="102.00" routeLength="1099.91" waitingTime="11.20" waitingCount="1" stopTime="0.00" timeLoss="24.47" rerouteNo="1" devices="tripinfo_C2_1.0 routing_C2_1.0" vType="car" speedFactor="1.13" vaporized=""/>
    <personinfo id="pf_2.12" depart="108.00" type="ped" speedFactor="0.97" duration="34.50" waitingTime="9.50" timeLoss="11.94" traveltime="34.50">
        <walk depart="108.00" departPos="15.72" arrival="142.50" arrivalPos="4.00" duration="34.50" routeLength="30.33" timeLoss="11.94" maxSpeed="1.34" waitingTime="9.50"/>
    </personinfo>
    <tripinfo id="A2_1.3" depart="16.40" departLane="-793339796#2_1" departPos="5.10" departPosLat="0.00" departSpeed="28.05" departDelay="0.00" arrival="142.50" arrivalLane="-440471861#0_1" arrivalPos="31.49" arrivalPosLat="0.00" arrivalSpeed="27.92" duration="126.10" routeLength="1081.89" waitingTime="71.20" waitingCount="2" stopTime="0.00" timeLoss="87.50" rerouteNo="1" devices="tripinfo_A2_1.3 routing_A2_1.3" vType="car" speedFactor="1.01" vaporized=""/>
    <tripinfo id="C1_1.4" depart="57.10" departLane="440471861#0_1" departPos="5.10" departPosLat="0.00" departSpeed="26.26" departDelay="0.00" arrival="146.20" arrivalLane="-793339796#2_1" arrivalPos="83.13" arrivalPosLat="-0.00" arrivalSpeed="31.47" duration="89.10" routeLength="1654.03" waitingTime="0.00" waitingCount="0" stopTime="0.00" timeLoss="35.61" rerouteNo="1" devices="tripinfo_C1_1.4 routing_C1_1.4" vType="car" speedFactor="1.13" vaporized=""/>
    <tripinfo id="A2_1.5" depart="69.20" departLane="-793339796#2_1" departPos="5.10" departPosLat="0.00" departSpeed="23.13" departDelay="22.60" arrival="146.50" arrivalLane="-440471861#0_1" arrivalPos="31.49" arrivalPosLat="0.00" arrivalSpeed="23.09" duration="77.30" routeLength="1081.89" waitingTime="17.10" waitingCount="1" stopTime="0.00" timeLoss="30.51" rerouteNo="1" devices="tripinfo_A2_1.5 routing_A2_1.5" vType="car" speedFactor="0.83" vaporized=""/>
    <tripinfo id="C1_1.3" depart="56.20" departLane="440471861#0_1" departPos="8.10" departPosLat="0.00" departSpeed="27.78" departDelay="0.00" arrival="146.90" arrivalLane="-793339796#2_2" arrivalPos="83.13" arrivalPosLat="0.00" arrivalSpeed="24.11" duration="90.70" routeLength="1651.03" waitingTime="0.00" waitingCount="0" stopTime="0.00" timeLoss="30.24" rerouteNo="1" devices="tripinfo_C1_1.3 routing_C1_1.3" vType="jeep" speedFactor="1.00" vaporized=""/>
    <personinfo id="pf_2.13" depart="117.00" type="ped" speedFactor="0.80" duration="30.10" waitingTime="0.00" timeLoss="2.91" traveltime="30.10">
        <walk depart="117.00" departPos="15.72" arrival="147.10" arrivalPos="4.00" duration="30.10" routeLength="30.33" timeLoss="2.91" maxSpeed="1.12" waitingTime="0.00"/>
    </personinfo>
    <tripinfo id="C1_1.5" depart="63.70" departLane="440471861#0_1" departPos="5.10" departPosLat="0.00" departSpeed="31.12" departDelay="0.00" arrival="148.40" arrivalLane="-793339796#2_1" arrivalPos="83.13" arrivalPosLat="0.00" arrivalSpeed="27.30" duration="84.70" routeLength="1654.03" waitingTime="0.00" waitingCount="0" stopTime="0.00" timeLoss="30.57" rerouteNo="1" devices="tripinfo_C1_1.5 routing_C1_1.5" vType="car" speedFactor="1.12" vaporized=""/>
    <tripinfo id="A2_1.4" depart="68.90" departLane="-793339796#2_2" departPos="7.20" departPosLat="0.00" departSpeed="25.45" departDelay="27.50" arrival="152.90" arrivalLane="-440471861#0_2" arrivalPos="31.49" arrivalPosLat="0.00" arrivalSpeed="25.44" duration="84.00" routeLength="1079.79" waitingTime="18.80" waitingCount="1" stopTime="0.00" timeLoss="41.53" rerouteNo="1" devices="tripinfo_A2_1.4 routing_A2_1.4" vType="truck" speedFactor="0.92" vaporized=""/>
    <tripinfo id="C2_1.1" depart="54.60" departLane="440471861#0_2" departPos="2.30" departPosLat="0.00" departSpeed="27.20" departDelay="0.00" arrival="153.30" arrivalLane="-145894807#0_1" arrivalPos="260.97" arrivalPosLat="0.00" arrivalSpeed="7.94" duration="98.70" routeLength="1102.71" waitingTime="0.00" waitingCount="0" stopTime="0.00" timeLoss="9.36" rerouteNo="1" devices="tripinfo_C2_1.1 routing_C2_1.1" vType="motorcycle" speedFactor="0.98" vaporized=""/>
    <tripinfo id="A3_1.0" depart="15.20" departLane="-793339796#2_2" departPos="5.10" departPosLat="0.00" departSpeed="25.00" departDelay="0.00" arrival="162.40" arrivalLane="-140483224#1_2" arrivalPos="64.17" arrivalPosLat="0.00" arrivalSpeed="24.98" duration="147.20" routeLength="1081.71" waitingTime="82.50" waitingCount="3" stopTime="0.00" timeLoss="102.24" rerouteNo="1" devices="tripinfo_A3_1.0 routing_A3_1.0" vType="car" speedFactor="0.90" vaporized=""/>
    <tripinfo id="D2_1.0" depart="25.10" departLane="140483224#1_1" departPos="2.30" departPosLat="0.00" departSpeed="29.87" departDelay="0.00" arrival="165.90" arrivalLane="-145894807#0_1" arrivalPos="260.97" arrivalPosLat="-0.00" arrivalSpeed="8.85" duration="140.80" routeLength="1112.65" waitingTime="50.30" waitingCount="3" stopTime="0.00" timeLoss="59.46" rerouteNo="1" devices="tripinfo_D2_1.0 routing_D2_1.0" vType="motorcycle" speedFactor="1.08" vaporized=""/>
    <tripinfo id="A3_1.1" depart="68.90" departLane="-793339796#2_1" departPos="12.10" departPosLat="0.00" departSpeed="27.78" departDelay="37.90" arrival="169.70" arrivalLane="-140483224#1_1" arrivalPos="64.17" arrivalPosLat="-0.00" arrivalSpeed="27.74" duration="100.80" routeLength="1074.71" waitingTime="23.80" waitingCount="3" stopTime="0.00" timeLoss="60.53" rerouteNo="1" devices="tripinfo_A3_1.1 routing_A3_1.1" vType="bus" speedFactor="1.00" vaporized=""/>
    <personinfo id="pf_2.16" depart="144.00" type="ped" speedFactor="1.13" duration="26.60" waitingTime="4.90" timeLoss="7.21" traveltime="26.60">
        <walk depart="144.00" departPos="15.72" arrival="170.60" arrivalPos="4.00" duration="26.60" routeLength="30.33" timeLoss="7.21" maxSpeed="1.56" waitingTime="4.90"/>
    </personinfo>
    <tripinfo id="B2_1.0" depart="13.90" departLane="-361257727#0_1" departPos="8.10" departPosLat="0.00" departSpeed="8.33" departDelay="0.00" arrival="170.90" arrivalLane="-440471861#0_2" arrivalPos="31.49" arrivalPosLat="0.00" arrivalSpeed="27.78" duration="157.00" routeLength="1411.29" waitingTime="18.90" waitingCount="1" stopTime="0.00" timeLoss="38.40" rerouteNo="1" devices="tripinfo_B2_1.0 routing_B2_1.0" vType="jeep" speedFactor="1.00" vaporized=""/>
    <personinfo id="pf_2.15" depart="135.00" type="ped" speedFactor="1.07" duration="36.40" waitingTime="13.60" timeLoss="15.99" traveltime="36.40">
        <walk depart="135.00" departPos="15.72" arrival="171.40" arrivalPos="4.00" duration="36.40" routeLength="30.33" timeLoss="15.99" maxSpeed="1.49" waitingTime="13.60"/>
    </personinfo>
    <personinfo id="pf_2.14" depart="126.00" type="ped" speedFactor="1.00" duration="46.40" waitingTime="22.00" timeLoss="24.58" traveltime="46.40">
        <walk depart="126.00" departPos="15.72" arrival="172.40" arrivalPos="4.00" duration="46.40" routeLength="30.33" timeLoss="24.58" maxSpeed="1.39" waitingTime="22.00"/>
    </personinfo>
    <tripinfo id="D2_1.1" depart="39.10" departLane="140483224#1_1" departPos="8.10" departPosLat="0.00" departSpeed="27.78" departDelay="0.00" arrival="173.00" arrivalLane="-145894807#0_1" arrivalPos="260.97" arrivalPosLat="0.00" arrivalSpeed="8.30" duration="133.90" routeLength="1106.85" waitingTime="29.10" waitingCount="2" stopTime="0.00" timeLoss="46.58" rerouteNo="1" devices="tripinfo_D2_1.1 routing_D2_1.1" vType="jeep" speedFactor="1.00" vaporized=""/>
    <personinfo id="pf_2.17" depart="153.00" type="ped" speedFactor="1.11" duration="21.80" waitingTime="0.00" timeLoss="2.10" traveltime="21.80">
        <walk depart="153.00" departPos="15.72" arrival="174.80" arrivalPos="4.00" duration="21.80" routeLength="30.33" timeLoss="2.10" maxSpeed="1.54" waitingTime="0.00"/>
    </personinfo>
    <personinfo id="pf_2.18" depart="162.00" type="ped" speedFactor="0.92" duration="26.30" waitingTime="0.00" timeLoss="2.67" traveltime="26.30">
        <walk depart="162.00" departPos="15.72" arrival="188.30" arrivalPos="4.00" duration="26.30" routeLength="30.33" timeLoss="2.67" maxSpeed="1.28" waitingTime="0.00"/>
    </personinfo>
    <tripinfo id="C3_1.6" depart="70.30" departLane="440471861#0_1" departPos="5.10" departPosLat="0.00" departSpeed="27.76" departDelay="0.00" arrival="201.50" arrivalLane="-140483224#1_1" arrivalPos="64.17" arrivalPosLat="-0.00" arrivalSpeed="27.69" duration="131.20" routeLength="1053.93" waitingTime="76.10" waitingCount="2" stopTime="0.00" timeLoss="92.14" rerouteNo="1" devices="tripinfo_C3_1.6 routing_C3_1.6" vType="car" speedFactor="1.00" vaporized=""/>
    <tripinfo id="C3_1.7" depart="87.10" departLane="440471861#0_1" departPos="5.10" departPosLat="0.00" departSpeed="24.31" departDelay="0.00" arrival="203.20" arrivalLane="-140483224#1_2" arrivalPos="64.17" arrivalPosLat="0.00" arrivalSpeed="24.28" duration="116.10" routeLength="1053.93" waitingTime="50.00" waitingCount="3" stopTime="0.00" timeLoss="71.47" rerouteNo="1" devices="tripinfo_C3_1.7 routing_C3_1.7" vType="car" speedFactor="0.88" vaporized=""/>
    <tripinfo id="C3_1.9" depart="125.10" departLane="440471861#0_1" departPos="5.10" departPosLat="0.00" departSpeed="24.45" departDelay="0.00" arrival="204.50" arrivalLane="-140483224#1_2" arrivalPos="64.17" arrivalPosLat="0.00" arrivalSpeed="24.33" duration="79.40" routeLength="1053.93" waitingTime="11.00" waitingCount="2" stopTime="0.00" timeLoss="35.01" rerouteNo="1" devices="tripinfo_C3_1.9 routing_C3_1.9" vType="car" speedFactor="0.88" vaporized=""/>
    <tripinfo id="C3_1.8" depart="109.30" departLane="440471861#0_1" departPos="2.30" departPosLat="0.00" departSpeed="25.22" departDelay="0.00" arrival="205.80" arrivalLane="-140483224#1_1" arrivalPos="64.17" arrivalPosLat="-0.00" arrivalSpeed="25.13" duration="96.50" routeLength="1056.73" waitingTime="27.30" waitingCount="3" stopTime="0.00" timeLoss="53.38" rerouteNo="1" devices="tripinfo_C3_1.8 routing_C3_1.8" vType="tricycle" speedFactor="0.91" vaporized=""/>
    <tripinfo id="D3_1.1" depart="94.70" departLane="140483224#1_2" departPos="8.10" departPosLat="0.00" departSpeed="27.78" departDelay="0.00" arrival="211.60" arrivalLane="-440471861#0_2" arrivalPos="31.49" arrivalPosLat="0.00" arrivalSpeed="27.74" duration="116.90" routeLength="1066.09" waitingTime="51.70" waitingCount="1" stopTime="0.00" timeLoss="77.06" rerouteNo="1" devices="tripinfo_D3_1.1 routing_D3_1.1" vType="jeep" speedFactor="1.00" vaporized=""/>
    <personinfo id="pf_2.19" depart="171.00" type="ped" speedFactor="1.03" duration="41.30" waitingTime="17.80" timeLoss="20.18" traveltime="41.30">
        <walk depart="171.00" departPos="15.72" arrival="212.30" arrivalPos="4.00" duration="41.30" routeLength="30.33" timeLoss="20.18" maxSpeed="1.44" waitingTime="17.80"/>
    </personinfo>
    <personinfo id="pf_2.21" depart="189.00" type="ped" speedFactor="1.05" duration="23.70" waitingTime="0.60" timeLoss="2.97" traveltime="23.70">
        <walk depart="189.00" departPos="15.72" arrival="212.70" arrivalPos="4.00" duration="23.70" routeLength="30.33" timeLoss="2.97" maxSpeed="1.46" waitingTime="0.60"/>
    </personinfo>
    <tripinfo id="D3_1.2" depart="121.80" departLane="140483224#1_1" departPos="2.30" departPosLat="0.00" departSpeed="29.77" departDelay="0.00" arrival="212.80" arrivalLane="-440471861#0_2" arrivalPos="31.49" arrivalPosLat="0.00" arrivalSpeed="29.74" duration="91.00" routeLength="1071.89" waitingTime="35.70" waitingCount="1" stopTime="0.00" timeLoss="53.65" rerouteNo="1" devices="tripinfo_D3_1.2 routing_D3_1.2" vType="motorcycle" speedFactor="1.07" vaporized=""/>
    <tripinfo id="D3_1.3" depart="128.50" departLane="140483224#1_2" departPos="5.10" departPosLat="0.00" departSpeed="26.95" departDelay="0.00" arrival="213.20" arrivalLane="-440471861#0_1" arrivalPos="31.49" arrivalPosLat="-0.00" arrivalSpeed="26.90" duration="84.70" routeLength="1069.09" waitingTime="22.40" waitingCount="1" stopTime="0.00" timeLoss="43.48" rerouteNo="1" devices="tripinfo_D3_1.3 routing_D3_1.3" vType="car" speedFactor="0.97" vaporized=""/>
    <personinfo id="pf_2.20" depart="180.00" type="ped" speedFactor="0.94" duration="33.60" waitingTime="8.00" timeLoss="10.41" traveltime="33.60">
        <walk depart="180.00" departPos="15.72" arrival="213.60" arrivalPos="4.00" duration="33.60" routeLength="30.33" timeLoss="10.41" maxSpeed="1.31" waitingTime="8.00"/>
    </personinfo>
    <tripinfo id="A2_1.7" depart="148.10" departLane="-793339796#2_1" departPos="5.10" departPosLat="0.00" departSpeed="20.12" departDelay="99.70" arrival="223.10" arrivalLane="-440471861#0_1" arrivalPos="31.49" arrivalPosLat="0.00" arrivalSpeed="29.25" duration="75.00" routeLength="1081.89" waitingTime="17.80" waitingCount="2" stopTime="0.00" timeLoss="38.07" rerouteNo="1" devices="tripinfo_A2_1.7 routing_A2_1.7" vType="car" speedFactor="1.06" vaporized=""/>
    <tripinfo id="A2_1.8" depart="148.40" departLane="-793339796#2_2" departPos="5.10" departPosLat="0.00" departSpeed="23.72" departDelay="94.30" arrival="224.30" arrivalLane="-440471861#0_1" arrivalPos="31.49" arrivalPosLat="-0.00" arrivalSpeed="30.29" duration="75.90" routeLength="1081.89" waitingTime="9.50" waitingCount="2" stopTime="0.00" timeLoss="40.21" rerouteNo="1" devices="tripinfo_A2_1.8 routing_A2_1.8" vType="car" speedFactor="1.09" vaporized=""/>
    <tripinfo id="B1_1.0" depart="75.60" departLane="-361257727#0_1" departPos="5.10" departPosLat="0.00" departSpeed="9.89" departDelay="0.00" arrival="225.30" arrivalLane="-793339796#2_2" arrivalPos="83.13" arrivalPosLat="0.00" arrivalSpeed="32.97" duration="149.70" routeLength="1915.62" waitingTime="2.20" waitingCount="1" stopTime="0.00" timeLoss="36.23" rerouteNo="1" devices="tripinfo_B1_1.0 routing_B1_1.0" vType="car" speedFactor="1.19" vaporized=""/>
    <tripinfo id="C1_1.6" depart="82.10" departLane="440471861#0_1" departPos="2.30" departPosLat="0.00" departSpeed="28.74" departDelay="0.00" arrival="226.80" arrivalLane="-793339796#2_2" arrivalPos="83.13" arrivalPosLat="0.00" arrivalSpeed="28.53" duration="144.70" routeLength="1656.83" waitingTime="69.70" waitingCount="2" stopTime="0.00" timeLoss="85.99" rerouteNo="1" devices="tripinfo_C1_1.6 routing_C1_1.6" vType="motorcycle" speedFactor="1.03" vaporized=""/>
    <tripinfo id="C2_1.2" depart="136.50" departLane="440471861#0_2" departPos="2.30" departPosLat="0.00" departSpeed="28.84" departDelay="0.00" arrival="228.70" arrivalLane="-145894807#0_1" arrivalPos="260.97" arrivalPosLat="-0.00" arrivalSpeed="8.62" duration="92.20" routeLength="1102.71" waitingTime="0.00" waitingCount="0" stopTime="0.00" timeLoss="7.94" rerouteNo="1" devices="tripinfo_C2_1.2 routing_C2_1.2" vType="tricycle" speedFactor="1.04" vaporized=""/>
    <tripinfo id="A2_1.9" depart="166.20" departLane="-793339796#2_2" departPos="5.10" departPosLat="0.00" departSpeed="28.44" departDelay="40.40" arrival="229.20" arrivalLane="-440471861#0_1" arrivalPos="31.49" arrivalPosLat="-0.00" arrivalSpeed="28.35" duration="63.00" routeLength="1081.89" waitingTime="2.00" waitingCount="1" stopTime="0.00" timeLoss="24.91" rerouteNo="1" devices="tripinfo_A2_1.9 routing_A2_1.9" vType="car" speedFactor="1.02" vaporized=""/>
    <tripinfo id="A2_1.6" depart="148.10" departLane="-793339796#2_2" departPos="8.10" departPosLat="0.00" departSpeed="27.78" departDelay="100.00" arrival="232.30" arrivalLane="-440471861#0_2" arrivalPos="31.49" arrivalPosLat="0.00" arrivalSpeed="27.74" duration="84.20" routeLength="1078.89" waitingTime="17.30" waitingCount="2" stopTime="0.00" timeLoss="45.28" rerouteNo="1" devices="tripinfo_A2_1.6 routing_A2_1.6" vType="jeep" speedFactor="1.00" vaporized=""/>
    <tripinfo id="A3_1.2" depart="148.60" departLane="-793339796#2_1" departPos="7.20" departPosLat="0.00" departSpeed="15.34" departDelay="87.60" arrival="232.40" arrivalLane="-140483224#1_2" arrivalPos="64.17" arrivalPosLat="0.00" arrivalSpeed="28.19" duration="83.80" routeLength="1079.61" waitingTime="8.40" waitingCount="2" stopTime="0.00" timeLoss="44.12" rerouteNo="1" devices="tripinfo_A3_1.2 routing_A3_1.2" vType="truck" speedFactor="1.02" vaporized=""/>
    <personinfo id="pf_2.23" depart="207.00" type="ped" speedFactor="1.01" duration="26.10" waitingTime="1.90" timeLoss="4.44" traveltime="26.10">
        <walk depart="207.00" departPos="15.72" arrival="233.10" arrivalPos="4.00" duration="26.10" routeLength="30.33" timeLoss="4.44" maxSpeed="1.40" waitingTime="1.90"/>
    </personinfo>
    <personinfo id="pf_2.22" depart="198.00" type="ped" speedFactor="0.97" duration="35.80" waitingTime="10.80" timeLoss="13.23" traveltime="35.80">
        <walk depart="198.00" departPos="15.72" arrival="233.80" arrivalPos="4.00" duration="35.80" routeLength="30.33" timeLoss="13.23" maxSpeed="1.34" waitingTime="10.80"/>
    </personinfo>
    <tripinfo id="A3_1.3" depart="166.30" departLane="-793339796#2_2" departPos="2.30" departPosLat="0.00" departSpeed="19.97" departDelay="39.20" arrival="233.90" arrivalLane="-140483224#1_2" arrivalPos="64.17" arrivalPosLat="0.00" arrivalSpeed="27.12" duration="67.60" routeLength="1084.51" waitingTime="0.20" waitingCount="1" stopTime="0.00" timeLoss="26.17" rerouteNo="1" devices="tripinfo_A3_1.3 routing_A3_1.3" vType="motorcycle" speedFactor="0.98" vaporized=""/>
    <tripinfo id="C1_1.9" depart="136.00" departLane="440471861#0_1" departPos="5.10" departPosLat="0.00" departSpeed="27.79" departDelay="0.00" arrival="234.90" arrivalLane="-793339796#2_2" arrivalPos="83.13" arrivalPosLat="0.00" arrivalSpeed="28.78" duration="98.90" routeLength="1654.03" waitingTime="6.70" waitingCount="1" stopTime="0.00" timeLoss="40.53" rerouteNo="1" devices="tripinfo_C1_1.9 routing_C1_1.9" vType="car" speedFactor="1.04" vaporized=""/>