<?xml version="1.0" encoding="UTF-8"?>

<!-- generated on 2026-02-16 23:00:40 by Eclipse SUMO sumo Version 1.24.0
<sumoConfiguration xmlns:xsi="http://www.w3.org/2001/XMLSchema-instance" xsi:noNamespaceSchemaLocation="http://sumo.dlr.de/xsd/sumoConfiguration.xsd">

    <input>
        <net-file value="Olivarez_traci\network/map1.net.xml"/>
        <route-files value="Olivarez_traci\demand\flows_slow_traffic.rou.xml"/>
        <additional-files value="Olivarez_traci\additionals/map.poly.xml,Olivarez_traci\ additionals/detectors.add.xml"/>
    </input>

    <output>
        <tripinfo-output value="Olivarez_traci\output_A2C\SP_A2C_Unified_Slow_trips.xml"/>
        <statistic-output value="Olivarez_traci\output_A2C\SP_A2C_Unified_Slow_stats.xml"/>
    </output>

    <time>
        <begin value="0"/>
        <end value="10800"/>
        <step-length value="0.1"/>
    </time>

    <processing>
        <lateral-resolution value="0.1"/>
        <collision.action value="none"/>
        <collision.check-junctions value="false"/>
        <collision.mingap-factor value="0"/>
    </processing>

    <report>
        <no-warnings value="true"/>
    </report>

    <traci_server>
        <remote-port value="49893"/>
    </traci_server>

    <gui_only>
        <delay value="0"/>
    </gui_only>

</sumoConfiguration>
-->

<tripinfos xmlns:xsi="http://www.w3.org/2001/XMLSchema-instance" xsi:noNamespaceSchemaLocation="http://sumo.dlr.de/xsd/tripinfo_file.xsd">
    <personinfo id="pf_2.0" depart="0.00" type="ped" speedFactor="0.88" duration="28.10" waitingTime="0.00" timeLoss="2.92" traveltime="28.10">
        <walk depart="0.00" departPos="15.09" arrival="28.10" arrivalPos="3.44" duration="28.10" routeLength="30.72" timeLoss="2.92" maxSpeed="1.22" waitingTime="0.00"/>
    </personinfo>
    <tripinfo id="D3_1.0" depart="15.30" departLane="140483224#1_2" departPos="5.10" departPosLat="0.00" departSpeed="28.45" departDelay="0.00" arrival="59.30" arrivalLane="-440471861#0_2" arrivalPos="31.52" arrivalPosLat="0.00" arrivalSpeed="28.34" duration="44.00" routeLength="1067.97" waitingTime="0.00" waitingCount="0" stopTime="0.00" timeLoss="4.92" rerouteNo="1" devices="tripinfo_D3_1.0 routing_D3_1.0" vType="car" speedFactor="1.02" vaporized=""/>
    <tripinfo id="A2_1.0" depart="8.90" departLane="-793339796#2_1" departPos="5.10" departPosLat="0.00" departSpeed="29.35" departDelay="0.00" arrival="71.00" arrivalLane="-440471861#0_1" arrivalPos="31.52" arrivalPosLat="0.00" arrivalSpeed="29.30" duration="62.10" routeLength="1081.27" waitingTime="8.70" waitingCount="2" stopTime="0.00" timeLoss="25.25" rerouteNo="1" devices="tripinfo_A2_1.0 routing_A2_1.0" vType="car" speedFactor="1.06" vaporized=""/>
    <tripinfo id="A2_1.1" depart="16.40" departLane="-793339796#2_1" departPos="8.10" departPosLat="0.00" departSpeed="27.78" departDelay="0.00" arrival="80.00" arrivalLane="-440471861#0_2" arrivalPos="31.52" arrivalPosLat="0.00" arrivalSpeed="27.76" duration="63.60" routeLength="1078.27" waitingTime="4.10" waitingCount="1" stopTime="0.00" timeLoss="24.71" rerouteNo="1" devices="tripinfo_A2_1.1 routing_A2_1.1" vType="jeep" speedFactor="1.00" vaporized=""/>
    <tripinfo id="D1_1.0" depart="1.20" departLane="140483224#1_1" departPos="5.10" departPosLat="0.00" departSpeed="27.86" departDelay="0.00" arrival="89.30" arrivalLane="-793339796#2_2" arrivalPos="82.50" arrivalPosLat="0.00" arrivalSpeed="27.84" duration="88.10" routeLength="1648.38" waitingTime="7.20" waitingCount="1" stopTime="0.00" timeLoss="26.63" rerouteNo="1" devices="tripinfo_D1_1.0 routing_D1_1.0" vType="car" speedFactor="1.00" vaporized=""/>
    <personinfo id="pf_2.3" depart="67.50" type="ped" speedFactor="1.13" duration="22.60" waitingTime="0.70" timeLoss="2.97" traveltime="22.60">
        <walk depart="67.50" departPos="15.09" arrival="90.10" arrivalPos="3.44" duration="22.60" routeLength="30.72" timeLoss="2.97" maxSpeed="1.57" waitingTime="0.70"/>
    </personinfo>
    <personinfo id="pf_2.1" depart="22.50" type="ped" speedFactor="1.08" duration="68.50" waitingTime="45.50" timeLoss="47.97" traveltime="68.50">
        <walk depart="22.50" departPos="15.09" arrival="91.00" arrivalPos="3.44" duration="68.50" routeLength="30.72" timeLoss="47.97" maxSpeed="1.50" waitingTime="45.50"/>
    </personinfo>
    <personinfo id="pf_2.2" depart="45.00" type="ped" speedFactor="0.99" duration="47.00" waitingTime="22.40" timeLoss="24.72" traveltime="47.00">
        <walk depart="45.00" departPos="15.09" arrival="92.00" arrivalPos="3.44" duration="47.00" routeLength="30.72" timeLoss="24.72" maxSpeed="1.38" waitingTime="22.40"/>
    </personinfo>
    <tripinfo id="C3_1.1" depart="22.80" departLane="440471861#0_1" departPos="2.30" departPosLat="0.00" departSpeed="25.10" departDelay="0.00" arrival="98.20" arrivalLane="-140483224#1_1" arrivalPos="64.04" arrivalPosLat="0.00" arrivalSpeed="25.02" duration="75.40" routeLength="1055.58" waitingTime="18.90" waitingCount="2" stopTime="0.00" timeLoss="31.85" rerouteNo="1" devices="tripinfo_C3_1.1 routing_C3_1.1" vType="motorcycle" speedFactor="0.90" vaporized=""/>
    <tripinfo id="C3_1.0" depart="8.60" departLane="440471861#0_1" departPos="5.10" departPosLat="0.00" departSpeed="28.99" departDelay="0.00" arrival="100.20" arrivalLane="-140483224#1_2" arrivalPos="64.04" arrivalPosLat="0.00" arrivalSpeed="28.94" duration="91.60" routeLength="1052.78" waitingTime="38.40" waitingCount="2" stopTime="0.00" timeLoss="53.96" rerouteNo="1" devices="tripinfo_C3_1.0 routing_C3_1.0" vType="car" speedFactor="1.04" vaporized=""/>
    <tripinfo id="C3_1.2" depart="47.20" departLane="440471861#0_1" departPos="5.10" departPosLat="0.00" departSpeed="30.59" departDelay="0.00" arrival="100.80" arrivalLane="-140483224#1_1" arrivalPos="64.04" arrivalPosLat="-0.00" arrivalSpeed="30.49" duration="53.60" routeLength="1052.78" waitingTime="0.00" waitingCount="0" stopTime="0.00" timeLoss="17.94" rerouteNo="1" devices="tripinfo_C3_1.2 routing_C3_1.2" vType="car" speedFactor="1.10" vaporized=""/>
    <tripinfo id="C1_1.0" depart="35.30" departLane="440471861#0_1" departPos="5.10" departPosLat="0.00" departSpeed="25.38" departDelay="0.00" arrival="120.30" arrivalLane="-793339796#2_2" arrivalPos="82.50" arrivalPosLat="0.00" arrivalSpeed="25.30" duration="85.00" routeLength="1653.99" waitingTime="0.00" waitingCount="0" stopTime="0.00" timeLoss="18.54" rerouteNo="1" devices="tripinfo_C1_1.0 routing_C1_1.0" vType="car" speedFactor="0.91" vaporized=""/>
    <personinfo id="pf_4.0" depart="0.00" type="ped" speedFactor="1.03" duration="121.00" waitingTime="5.70" timeLoss="17.14" traveltime="121.00">
        <walk depart="0.00" departPos="25.00" arrival="55.90" arrivalPos="29.11" duration="55.90" routeLength="72.15" timeLoss="5.39" maxSpeed="1.43" waitingTime="0.00"/>
        <walk depart="55.90" departPos="29.11" arrival="121.00" arrivalPos="29.05" duration="65.10" routeLength="76.20" timeLoss="11.75" maxSpeed="1.43" waitingTime="5.70"/>
    </personinfo>
    <tripinfo id="A2_1.2" depart="41.40" departLane="-793339796#2_1" departPos="5.10" departPosLat="0.00" departSpeed="28.78" departDelay="0.00" arrival="122.50" arrivalLane="-440471861#0_1" arrivalPos="31.52" arrivalPosLat="0.00" arrivalSpeed="28.70" duration="81.10" routeLength="1081.27" waitingTime="32.30" waitingCount="1" stopTime="0.00" timeLoss="43.48" rerouteNo="1" devices="tripinfo_A2_1.2 routing_A2_1.2" vType="car" speedFactor="1.04" vaporized=""/>
    <tripinfo id="A3_1.0" depart="31.50" departLane="-793339796#2_2" departPos="5.10" departPosLat="0.00" departSpeed="27.03" departDelay="0.50" arrival="123.40" arrivalLane="-140483224#1_2" arrivalPos="64.04" arrivalPosLat="0.00" arrivalSpeed="26.92" duration="91.90" routeLength="1080.94" waitingTime="41.50" waitingCount="1" stopTime="0.00" timeLoss="50.39" rerouteNo="1" devices="tripinfo_A3_1.0 routing_A3_1.0" vType="car" speedFactor="0.97" vaporized=""/>
    <tripinfo id="C2_1.0" depart="40.30" departLane="440471861#0_2" departPos="12.10" departPosLat="0.00" departSpeed="27.78" departDelay="0.00" arrival="127.90" arrivalLane="-145894807#0_1" arrivalPos="260.95" arrivalPosLat="0.00" arrivalSpeed="8.29" duration="87.60" routeLength="1075.06" waitingTime="0.00" waitingCount="0" stopTime="0.00" timeLoss="2.60" rerouteNo="1" devices="tripinfo_C2_1.0 routing_C2_1.0" vType="bus" speedFactor="1.00" vaporized=""/>
    <tripinfo id="C2_1.1" depart="54.60" departLane="440471861#0_2" departPos="5.10" departPosLat="0.00" departSpeed="34.31" departDelay="0.00" arrival="130.30" arrivalLane="-145894807#0_1" arrivalPos="260.95" arrivalPosLat="0.00" arrivalSpeed="10.16" duration="75.70" routeLength="1082.06" waitingTime="0.00" waitingCount="0" stopTime="0.00" timeLoss="6.59" rerouteNo="1" devices="tripinfo_C2_1.1 routing_C2_1.1" vType="car" speedFactor="1.24" vaporized=""/>
    <tripinfo id="A2_1.3" depart="54.50" departLane="-793339796#2_1" departPos="7.20" departPosLat="0.00" departSpeed="25.39" departDelay="0.40" arrival="130.90" arrivalLane="-440471861#0_1" arrivalPos="31.52" arrivalPosLat="0.00" arrivalSpeed="25.37" duration="76.40" routeLength="1079.17" waitingTime="8.90" waitingCount="1" stopTime="0.00" timeLoss="33.87" rerouteNo="1" devices="tripinfo_A2_1.3 routing_A2_1.3" vType="truck" speedFactor="0.91" vaporized=""/>
    <tripinfo id="A3_1.1" depart="61.00" departLane="-793339796#2_1" departPos="12.10" departPosLat="0.00" departSpeed="27.78" departDelay="0.00" arrival="131.10" arrivalLane="-140483224#1_2" arrivalPos="64.04" arrivalPosLat="0.00" arrivalSpeed="27.76" duration="70.10" routeLength="1073.94" waitingTime="3.90" waitingCount="1" stopTime="0.00" timeLoss="29.90" rerouteNo="1" devices="tripinfo_A3_1.1 routing_A3_1.1" vType="bus" speedFactor="1.00" vaporized=""/>
    <personinfo id="pf_4.1" depart="22.50" type="ped" speedFactor="1.04" duration="114.80" waitingTime="0.90" timeLoss="12.47" traveltime="114.80">
        <walk depart="22.50" departPos="25.00" arrival="78.60" arrivalPos="29.11" duration="56.10" routeLength="72.15" timeLoss="6.33" maxSpeed="1.45" waitingTime="0.90"/>
        <walk depart="78.60" departPos="29.11" arrival="137.30" arrivalPos="29.05" duration="58.70" routeLength="76.20" timeLoss="6.14" maxSpeed="1.45" waitingTime="0.00"/>
    </personinfo>
    <tripinfo id="B2_1.0" depart="13.90" departLane="-361257727#0_1" departPos="5.10" departPosLat="0.00" departSpeed="7.98" departDelay="0.00" arrival="141.50" arrivalLane="-440471861#0_1" arrivalPos="31.52" arrivalPosLat="-0.00" arrivalSpeed="26.51" duration="127.60" routeLength="1397.68" waitingTime="0.00" waitingCount="0" stopTime="0.00" timeLoss="5.55" rerouteNo="1" devices="tripinfo_B2_1.0 routing_B2_1.0" vType="car" speedFactor="0.96" vaporized=""/>
    <personinfo id="pf_2.4" depart="90.00" type="ped" speedFactor="1.05" duration="52.20" waitingTime="28.70" timeLoss="31.17" traveltime="52.20">
        <walk depart="90.00" departPos="15.09" arrival="142.20" arrivalPos="3.44" duration="52.20" routeLength="30.72" timeLoss="31.17" maxSpeed="1.46" waitingTime="28.70"/>
    </personinfo>
    <personinfo id="pf_2.5" depart="112.50" type="ped" speedFactor="0.91" duration="31.90" waitingTime="5.00" timeLoss="7.71" traveltime="31.90">
        <walk depart="112.50" departPos="15.09" arrival="144.40" arrivalPos="3.44" duration="31.90" routeLength="30.72" timeLoss="7.71" maxSpeed="1.27" waitingTime="5.00"/>
    </personinfo>
    <tripinfo id="D1_1.1" depart="47.90" departLane="140483224#1_1" departPos="7.20" departPosLat="0.00" departSpeed="26.91" departDelay="0.00" arrival="149.60" arrivalLane="-793339796#2_2" arrivalPos="82.50" arrivalPosLat="0.00" arrivalSpeed="25.41" duration="101.70" routeLength="1646.28" waitingTime="6.20" waitingCount="1" stopTime="0.00" timeLoss="38.12" rerouteNo="1" devices="tripinfo_D1_1.1 routing_D1_1.1" vType="truck" speedFactor="0.97" vaporized=""/>
    <tripinfo id="D2_1.0" depart="67.30" departLane="140483224#1_1" departPos="5.10" departPosLat="0.00" departSpeed="29.37" departDelay="0.00" arrival="151.20" arrivalLane="-145894807#0_1" arrivalPos="260.95" arrivalPosLat="0.00" arrivalSpeed="8.71" duration="83.90" routeLength="1092.76" waitingTime="0.00" waitingCount="0" stopTime="0.00" timeLoss="3.21" rerouteNo="1" devices="tripinfo_D2_1.0 routing_D2_1.0" vType="car" speedFactor="1.06" vaporized=""/>
    <personinfo id="pf_4.2" depart="45.00" type="ped" speedFactor="1.08" duration="110.90" waitingTime="0.90" timeLoss="12.01" traveltime="110.90">
        <walk depart="45.00" departPos="25.00" arrival="98.50" arrivalPos="29.11" duration="53.50" routeLength="72.15" timeLoss="5.41" maxSpeed="1.50" waitingTime="0.00"/>
        <walk depart="98.50" departPos="29.11" arrival="155.90" arrivalPos="29.05" duration="57.40" routeLength="76.20" timeLoss="6.61" maxSpeed="1.50" waitingTime="0.90"/>
    </personinfo>
    <tripinfo id="C3_1.3" depart="87.10" departLane="440471861#0_1" departPos="7.20" departPosLat="0.00" departSpeed="29.74" departDelay="0.00" arrival="158.20" arrivalLane="-140483224#1_2" arrivalPos="64.04" arrivalPosLat="0.00" arrivalSpeed="29.74" duration="71.10" routeLength="1050.68" waitingTime="1.60" waitingCount="1" stopTime="0.00" timeLoss="34.53" rerouteNo="1" devices="tripinfo_C3_1.3 routing_C3_1.3" vType="truck" speedFactor="1.07" vaporized=""/>
    <tripinfo id="D1_1.2" depart="74.50" departLane="140483224#1_1" departPos="7.20" departPosLat="0.00" departSpeed="27.47" departDelay="0.00" arrival="163.20" arrivalLane="-793339796#2_2" arrivalPos="82.50" arrivalPosLat="0.00" arrivalSpeed="25.30" duration="88.70" routeLength="1646.28" waitingTime="0.00" waitingCount="0" stopTime="0.00" timeLoss="26.28" rerouteNo="1" devices="tripinfo_D1_1.2 routing_D1_1.2" vType="truck" speedFactor="0.99" vaporized=""/>
    <tripinfo id="C1_1.2" depart="63.70" departLane="440471861#0_1" departPos="2.30" departPosLat="0.00" departSpeed="25.73" departDelay="0.00" arrival="168.20" arrivalLane="-793339796#2_1" arrivalPos="82.50" arrivalPosLat="-0.00" arrivalSpeed="25.71" duration="104.50" routeLength="1656.79" waitingTime="18.60" waitingCount="1" stopTime="0.00" timeLoss="38.91" rerouteNo="1" devices="tripinfo_C1_1.2 routing_C1_1.2" vType="tricycle" speedFactor="0.93" vaporized=""/>
    <tripinfo id="C1_1.1" depart="57.10" departLane="440471861#0_1" departPos="8.10" departPosLat="0.00" departSpeed="27.78" departDelay="0.00" arrival="178.40" arrivalLane="-793339796#2_2" arrivalPos="82.50" arrivalPosLat="0.00" arrivalSpeed="24.54" duration="121.30" routeLength="1650.99" waitingTime="27.30" waitingCount="1" stopTime="0.00" timeLoss="60.75" rerouteNo="1" devices="tripinfo_C1_1.1 routing_C1_1.1" vType="jeep" speedFactor="1.00" vaporized=""/>
    <tripinfo id="D1_1.3" depart="92.30" departLane="140483224#1_1" departPos="5.10" departPosLat="0.00" departSpeed="33.02" departDelay="0.00" arrival="179.60" arrivalLane="-793339796#2_2" arrivalPos="82.50" arrivalPosLat="0.00" arrivalSpeed="26.21" duration="87.30" routeLength="1648.38" waitingTime="4.50" waitingCount="1" stopTime="0.00" timeLoss="35.37" rerouteNo="1" devices="tripinfo_D1_1.3 routing_D1_1.3" vType="car" speedFactor="1.19" vaporized=""/>
    <tripinfo id="C1_1.3" depart="82.10" departLane="440471861#0_1" departPos="5.10" departPosLat="0.00" departSpeed="24.54" departDelay="0.00" arrival="181.00" arrivalLane="-793339796#2_1" arrivalPos="82.50" arrivalPosLat="0.00" arrivalSpeed="24.47" duration="98.90" routeLength="1653.99" waitingTime="0.00" waitingCount="0" stopTime="0.00" timeLoss="30.18" rerouteNo="1" devices="tripinfo_C1_1.3 routing_C1_1.3" vType="car" speedFactor="0.88" vaporized=""/>
    <personinfo id="pf_4.3" depart="67.50" type="ped" speedFactor="0.99" duration="119.30" waitingTime="0.00" timeLoss="11.73" traveltime="119.30">
        <walk depart="67.50" departPos="25.00" arrival="125.60" arrivalPos="29.11" duration="58.10" routeLength="72.15" timeLoss="5.78" maxSpeed="1.38" waitingTime="0.00"/>
        <walk depart="125.60" departPos="29.11" arrival="186.80" arrivalPos="29.05" duration="61.20" routeLength="76.20" timeLoss="5.94" maxSpeed="1.38" waitingTime="0.00"/>
    </personinfo>
    <tripinfo id="B2_1.1" depart="62.00" departLane="-361257727#0_1" departPos="8.10" departPosLat="0.00" departSpeed="8.33" departDelay="0.00" arrival="189.70" arrivalLane="-440471861#0_1" arrivalPos="31.52" arrivalPosLat="-0.00" arrivalSpeed="27.76" duration="127.70" routeLength="1394.68" waitingTime="0.00" waitingCount="0" stopTime="0.00" timeLoss="10.98" rerouteNo="1" devices="tripinfo_B2_1.1 routing_B2_1.1" vType="jeep" speedFactor="1.00" vaporized=""/>
    <personinfo id="pf_2.7" depart="157.50" type="ped" speedFactor="1.03" duration="36.20" waitingTime="12.00" timeLoss="14.72" traveltime="36.20">
        <walk depart="157.50" departPos="15.09" arrival="193.70" arrivalPos="3.44" duration="36.20" routeLength="30.72" timeLoss="14.72" maxSpeed="1.43" waitingTime="12.00"/>
    </personinfo>
    <personinfo id="pf_2.6" depart="135.00" type="ped" speedFactor="1.00" duration="58.90" waitingTime="34.40" timeLoss="36.88" traveltime="58.90">
        <walk depart="135.00" departPos="15.09" arrival="193.90" arrivalPos="3.44" duration="58.90" routeLength="30.72" timeLoss="36.88" maxSpeed="1.39" waitingTime="34.40"/>
    </personinfo>
    <tripinfo id="D1_1.4" depart="112.20" departLane="140483224#1_1" departPos="8.10" departPosLat="0.00" departSpeed="27.78" departDelay="0.00" arrival="200.90" arrivalLane="-793339796#2_2" arrivalPos="82.50" arrivalPosLat="0.00" arrivalSpeed="24.52" duration="88.70" routeLength="1645.38" waitingTime="0.00" waitingCount="0" stopTime="0.00" timeLoss="27.17" rerouteNo="1" devices="tripinfo_D1_1.4 routing_D1_1.4" vType="jeep" speedFactor="1.00" vaporized=""/>
    <tripinfo id="D1_1.5" depart="117.10" departLane="140483224#1_1" departPos="8.10" departPosLat="0.00" departSpeed="27.78" departDelay="0.00" arrival="205.30" arrivalLane="-793339796#2_2" arrivalPos="82.50" arrivalPosLat="0.00" arrivalSpeed="24.70" duration="88.20" routeLength="1645.38" waitingTime="0.00" waitingCount="0" stopTime="0.00" timeLoss="26.67" rerouteNo="1" devices="tripinfo_D1_1.5 routing_D1_1.5" vType="jeep" speedFactor="1.00" vaporized=""/>
    <tripinfo id="D2_1.1" depart="93.70" departLane="140483224#1_1" departPos="5.10" departPosLat="0.00" departSpeed="24.64" departDelay="0.00" arrival="205.70" arrivalLane="-145894807#0_1" arrivalPos="260.95" arrivalPosLat="0.00" arrivalSpeed="7.36" duration="112.00" routeLength="1092.76" waitingTime="6.40" waitingCount="1" stopTime="0.00" timeLoss="15.84" rerouteNo="1" devices="tripinfo_D2_1.1 routing_D2_1.1" vType="car" speedFactor="0.89" vaporized=""/>
    <tripinfo id="C3_1.4" depart="109.30" departLane="440471861#0_1" departPos="8.10" departPosLat="0.00" departSpeed="27.78" departDelay="0.00" arrival="213.00" arrivalLane="-140483224#1_1" arrivalPos="64.04" arrivalPosLat="-0.00" arrivalSpeed="27.75" duration="103.70" routeLength="1049.78" waitingTime="38.30" waitingCount="2" stopTime="0.00" timeLoss="64.60" rerouteNo="1" devices="tripinfo_C3_1.4 routing_C3_1.4" vType="jeep" speedFactor="1.00" vaporized=""/>
    <tripinfo id="C1_1.4" depart="125.70" departLane="440471861#0_1" departPos="5.10" departPosLat="0.00" departSpeed="28.41" departDelay="0.00" arrival="213.50" arrivalLane="-793339796#2_1" arrivalPos="82.50" arrivalPosLat="-0.00" arrivalSpeed="28.30" duration="87.80" routeLength="1653.99" waitingTime="9.80" waitingCount="1" stopTime="0.00" timeLoss="28.50" rerouteNo="1" devices="tripinfo_C1_1.4 routing_C1_1.4" vType="car" speedFactor="1.02" vaporized=""/>
    <personinfo id="pf_4.4" depart="90.00" type="ped" speedFactor="0.98" duration="127.70" waitingTime="6.60" timeLoss="18.93" traveltime="127.70">
        <walk depart="90.00" departPos="25.00" arrival="149.00" arrivalPos="29.11" duration="59.00" routeLength="72.15" timeLoss="6.10" maxSpeed="1.36" waitingTime="0.00"/>
        <walk depart="149.00" departPos="29.11" arrival="217.70" arrivalPos="29.05" duration="68.70" routeLength="76.20" timeLoss="12.83" maxSpeed="1.36" waitingTime="6.60"/>
    </personinfo>
    <tripinfo id="A3_1.2" depart="161.50" departLane="-793339796#2_2" departPos="2.30" departPosLat="0.00" departSpeed="25.81" departDelay="34.40" arrival="225.80" arrivalLane="-140483224#1_2" arrivalPos="64.04" arrivalPosLat="0.00" arrivalSpeed="31.39" duration="64.30" routeLength="1083.74" waitingTime="10.80" waitingCount="2" stopTime="0.00" timeLoss="28.37" rerouteNo="1" devices="tripinfo_A3_1.2 routing_A3_1.2" vType="tricycle" speedFactor="1.13" vaporized=""/>
    <tripinfo id="A2_1.4" depart="161.50" departLane="-793339796#2_1" departPos="5.10" departPosLat="0.00" departSpeed="24.79" departDelay="35.70" arrival="226.60" arrivalLane="-440471861#0_1" arrivalPos="31.52" arrivalPosLat="0.00" arrivalSpeed="24.76" duration="65.10" routeLength="1081.27" waitingTime="5.90" waitingCount="2" stopTime="0.00" timeLoss="21.46" rerouteNo="1" devices="tripinfo_A2_1.4 routing_A2_1.4" vType="car" speedFactor="0.89" vaporized=""/>
    <tripinfo id="A2_1.5" depart="161.90" departLane="-793339796#2_1" departPos="5.10" departPosLat="0.00" departSpeed="20.93" departDelay="32.00" arrival="227.40" arrivalLane="-440471861#0_2" arrivalPos="31.52" arrivalPosLat="0.00" arrivalSpeed="26.49" duration="65.50" routeLength="1081.27" waitingTime="0.00" waitingCount="0" stopTime="0.00" timeLoss="24.81" rerouteNo="1" devices="tripinfo_A2_1.5 routing_A2_1.5" vType="car" speedFactor="0.96" vaporized=""/>
    <personinfo id="pf_4.6" depart="135.00" type="ped" speedFactor="1.24" duration="96.40" waitingTime="0.90" timeLoss="10.34" traveltime="96.40">
        <walk depart="135.00" departPos="25.00" arrival="181.40" arrivalPos="29.11" duration="46.40" routeLength="72.15" timeLoss="4.54" maxSpeed="1.72" waitingTime="0.00"/>
        <walk depart="181.40" departPos="29.11" arrival="231.40" arrivalPos="29.05" duration="50.00" routeLength="76.20" timeLoss="5.80" maxSpeed="1.72" waitingTime="0.90"/>
    </personinfo>
    <tripinfo id="C1_1.5" depart="131.40" departLane="440471861#0_1" departPos="12.10" departPosLat="0.00" departSpeed="27.78" departDelay="0.00" arrival="231.80" arrivalLane="-793339796#2_2" arrivalPos="82.50" arrivalPosLat="0.00" arrivalSpeed="24.45" duration="100.40" routeLength="1646.99" waitingTime="3.00" waitingCount="1" stopTime="0.00" timeLoss="40.00" rerouteNo="1" devices="tripinfo_C1_1.5 routing_C1_1.5" vType="bus" speedFactor="1.00" vaporized=""/>
    <tripinfo id="B1_1.0" depart="75.60" departLane="-361257727#0_1" departPos="5.10" departPosLat="0.00" departSpeed="8.37" departDelay="0.00" arrival="235.00" arrivalLane="-793339796#2_2" arrivalPos="82.50" arrivalPosLat="0.00" arrivalSpeed="27.88" duration="159.40" routeLength="1915.44" waitingTime="5.80" waitingCount="1" stopTime="0.00" timeLoss="25.35" rerouteNo="1" devices="tripinfo_B1_1.0 routing_B1_1.0" vType="car" speedFactor="1.00" vaporized=""/>
    <personinfo id="pf_4.5" depart="112.50" type="ped" speedFactor="1.08" duration="122.90" waitingTime="13.40" timeLoss="24.34" traveltime="122.90">
        <walk depart="112.50" departPos="25.00" arrival="174.30" arrivalPos="29.11" duration="61.80" routeLength="72.15" timeLoss="13.87" maxSpeed="1.51" waitingTime="8.70"/>
        <walk depart="174.30" departPos="29.11" arrival="235.40" arrivalPos="29.05" duration="61.10" routeLength="76.20" timeLoss="10.47" maxSpeed="1.51" waitingTime="4.70"/>
    </personinfo>
    <personinfo id="pf_2.8" depart="180.00" type="ped" speedFactor="0.98" duration="65.20" waitingTime="40.20" timeLoss="42.72" traveltime="65.20">
        <walk depart="180.00" departPos="15.09" arrival="245.20" arrivalPos="3.44" duration="65.20" routeLength="30.72" timeLoss="42.72" maxSpeed="1.37" waitingTime="40.20"/>
    </personinfo>
    <personinfo id="pf_2.9" depart="202.50" type="ped" speedFactor="0.94" duration="43.70" waitingTime="17.30" timeLoss="20.17" traveltime="43.70">
        <walk depart="202.50" departPos="15.09" arrival="246.20" arrivalPos="3.44" duration="43.70" routeLength="30.72" timeLoss="20.17" maxSpeed="1.31" waitingTime="17.30"/>
    </personinfo>
    <personinfo id="pf_2.10" depart="225.00" type="ped" speedFactor="1.09" duration="22.70" waitingTime="0.00" timeLoss="2.35" traveltime="22.70">
        <walk depart="225.00" departPos="15.09" arrival="247.70" arrivalPos="3.44" duration="22.70" routeLength="30.72" timeLoss="2.35" maxSpeed="1.51" waitingTime="0.00"/>
    </personinfo>
    <tripinfo id="D2_1.2" depart="134.80" departLane="140483224#1_1" departPos="5.10" departPosLat="0.00" departSpeed="25.50" departDelay="0.00" arrival="254.00" arrivalLane="-145894807#0_1" arrivalPos="260.95" arrivalPosLat="0.00" arrivalSpeed="7.64" duration="119.20" routeLength="1092.76" waitingTime="19.40" waitingCount="1" stopTime="0.00" timeLoss="26.32" rerouteNo="1" devices="tripinfo_D2_1.2 routing_D2_1.2" vType="car" speedFactor="0.92" vaporized=""/>
    <tripinfo id="B2_1.2" depart="129.20" departLane="-361257727#0_1" departPos="5.10" departPosLat="0.00" departSpeed="7.02" departDelay="0.00" arrival="256.90" arrivalLane="-440471861#0_1" arrivalPos="31.52" arrivalPosLat="-0.00" arrivalSpeed="26.80" duration="127.70" routeLength="1397.68" waitingTime="0.00" waitingCount="0" stopTime="0.00" timeLoss="6.45" rerouteNo="1" devices="tripinfo_B2_1.2 routing_B2_1.2" vType="car" speedFactor="0.97" vaporized=""/>
    <tripinfo id="C1_1.6" depart="142.00" departLane="440471861#0_1" departPos="7.20" departPosLat="0.00" departSpeed="24.83" departDelay="0.00" arrival="257.40" arrivalLane="-793339796#2_2" arrivalPos="82.50" arrivalPosLat="0.00" arrivalSpeed="24.80" duration="115.40" routeLength="1651.89" waitingTime="11.70" waitingCount="1" stopTime="0.00" timeLoss="47.58" rerouteNo="1" devices="tripinfo_C1_1.6 routing_C1_1.6" vType="truck" speedFactor="0.89" vaporized=""/>
    <tripinfo id="A1_1.0" depart="162.30" departLane="-793339796#2_1" departPos="5.10" departPosLat="0.00" departSpeed="17.23" departDelay="4.40" arrival="259.30" arrivalLane="-145894807#0_1" arrivalPos="260.95" arrivalPosLat="0.00" arrivalSpeed="8.09" duration="97.00" routeLength="1056.72" waitingTime="0.00" waitingCount="0" stopTime="0.00" timeLoss="5.88" rerouteNo="1" devices="tripinfo_A1_1.0 routing_A1_1.0" vType="car" speedFactor="0.98" vaporized=""/>
    <tripinfo id="C3_1.5" depart="156.50" departLane="440471861#0_1" departPos="8.10" departPosLat="0.00" departSpeed="27.78" departDelay="0.00" arrival="260.80" arrivalLane="-140483224#1_2" arrivalPos="64.04" arrivalPosLat="0.00" arrivalSpeed="27.74" duration="104.30" routeLength="1049.78" waitingTime="39.90" waitingCount="1" stopTime="0.00" timeLoss="65.12" rerouteNo="1" devices="tripinfo_C3_1.5 routing_C3_1.5" vType="jeep" speedFactor="1.00" vaporized=""/>
    <tripinfo id="B3_1.0" depart="127.70" departLane="-361257727#0_1" departPos="8.10" departPosLat="0.00" departSpeed="8.33" departDelay="0.00" arrival="262.00" arrivalLane="-140483224#1_1" arrivalPos="64.04" arrivalPosLat="0.00" arrivalSpeed="27.76" duration="134.30" routeLength="1407.94" waitingTime="0.00" waitingCount="0" stopTime="0.00" timeLoss="17.37" rerouteNo="1" devices="tripinfo_B3_1.0 routing_B3_1.0" vType="jeep" speedFactor="1.00" vaporized=""/>
    <tripinfo id="C1_1.7" depart="160.50" departLane="440471861#0_1" departPos="5.10" departPosLat="0.00" departSpeed="30.21" departDelay="0.00" arrival="263.10" arrivalLane="-793339796#2_2" arrivalPos="82.50" arrivalPosLat="0.00" arrivalSpeed="30.12" duration="102.60" routeLength="1653.99" waitingTime="26.10" waitingCount="1" stopTime="0.00" timeLoss="46.78" rerouteNo="1" devices="tripinfo_C1_1.7 routing_C1_1.7" vType="car" speedFactor="1.09" vaporized=""/>
    <tripinfo id="D3_1.1" depart="179.60" departLane="140483224#1_2" departPos="5.10" departPosLat="0.00" departSpeed="29.50" departDelay="0.00" arrival="264.80" arrivalLane="-440471861#0_2" arrivalPos="31.52" arrivalPosLat="0.00" arrivalSpeed="29.45" duration="85.20" routeLength="1067.97" waitingTime="38.10" waitingCount="1" stopTime="0.00" timeLoss="47.59" rerouteNo="1" devices="tripinfo_D3_1.1 routing_D3_1.1" vType="car" speedFactor="1.06" vaporized=""/>
    <tripinfo id="D3_1.2" depart="201.70" departLane="140483224#1_2" departPos="5.10" departPosLat="0.00" departSpeed="25.75" departDelay="0.00" arrival="268.50" arrivalLane="-440471861#0_2" arrivalPos="31.52" arrivalPosLat="0.00" arrivalSpeed="25.62" duration="66.80" routeLength="1067.97" waitingTime="10.50" waitingCount="2" stopTime="0.00" timeLoss="23.63" rerouteNo="1" devices="tripinfo_D3_1.2 routing_D3_1.2" vType="car" speedFactor="0.93" vaporized=""/>
    <personinfo id="pf_4.7" depart="157.50" type="ped" speedFactor="1.06" duration="114.90" waitingTime="3.10" timeLoss="14.21" traveltime="114.90">
        <walk depart="157.50" departPos="25.00" arrival="215.00" arrivalPos="29.11" duration="57.50" routeLength="72.15" timeLoss="8.53" maxSpeed="1.47" waitingTime="3.10"/>
        <walk depart="215.00" departPos="29.11" arrival="272.40" arrivalPos="29.05" duration="57.40" routeLength="76.20" timeLoss="5.68" maxSpeed="1.47" waitingTime="0.00"/>
    </personinfo>
    <tripinfo id="A3_1.3" depart="173.20" departLane="-793339796#2_2" departPos="5.10" departPosLat="0.00" departSpeed="22.79" departDelay="0.00" arrival="279.40" arrivalLane="-140483224#1_2" arrivalPos="64.04" arrivalPosLat="0.00" arrivalSpeed="22.70" duration="106.20" routeLength="1080.94" waitingTime="44.80" waitingCount="1" stopTime="0.00" timeLoss="56.89" rerouteNo="1" devices="tripinfo_A3_1.3 routing_A3_1.3" vType="car" speedFactor="0.82" vaporized=""/>