<?xml version="1.0" encoding="UTF-8"?>

<!-- generated on 2025-12-03 22:02:50 by Eclipse SUMO sumo Version 1.24.0
<sumoConfiguration xmlns:xsi="http://www.w3.org/2001/XMLSchema-instance" xsi:noNamespaceSchemaLocation="http://sumo.dlr.de/xsd/sumoConfiguration.xsd">

    <input>
        <net-file value="Olivarez_traci\network/map1.net.xml"/>
        <route-files value="Olivarez_traci\demand\flows_slow_traffic.rou.xml"/>
        <additional-files value="Olivarez_traci\additionals/map.poly.xml,Olivarez_traci\ additionals/detectors.add.xml"/>
    </input>

    <output>
        <tripinfo-output value="Olivarez_traci\output_A2C\SP_A2C_Unified_Slow_trips.xml"/>
        <statistic-output value="Olivarez_traci\output_A2C\SP_A2C_Unified_Slow_stats.xml"/>
    </output>

    <time>
        <begin value="0"/>
        <end value="10800"/>
        <step-length value="0.1"/>
    </time>

    <processing>
        <lateral-resolution value="0.1"/>
        <collision.action value="none"/>
        <collision.check-junctions value="false"/>
        <collision.mingap-factor value="0"/>
    </processing>

    <report>
        <no-warnings value="true"/>
    </report>

    <traci_server>
        <remote-port value="63347"/>
    </traci_server>

    <gui_only>
        <delay value="0"/>
    </gui_only>

</sumoConfiguration>
-->

<tripinfos xmlns:xsi="http://www.w3.org/2001/XMLSchema-instance" xsi:noNamespaceSchemaLocation="http://sumo.dlr.de/xsd/tripinfo_file.xsd">
    <personinfo id="pf_2.0" depart="0.00" type="ped" speedFactor="0.88" duration="28.10" waitingTime="0.00" timeLoss="2.92" traveltime="28.10">
        <walk depart="0.00" departPos="15.09" arrival="28.10" arrivalPos="3.44" duration="28.10" routeLength="30.72" timeLoss="2.92" maxSpeed="1.22" waitingTime="0.00"/>
    </personinfo>
    <tripinfo id="A2_1.1" depart="16.40" departLane="-793339796#2_1" departPos="8.10" departPosLat="0.00" departSpeed="27.78" departDelay="0.00" arrival="61.20" arrivalLane="-440471861#0_2" arrivalPos="31.52" arrivalPosLat="0.00" arrivalSpeed="27.77" duration="44.80" routeLength="1078.27" waitingTime="0.00" waitingCount="0" stopTime="0.00" timeLoss="5.89" rerouteNo="1" devices="tripinfo_A2_1.1 routing_A2_1.1" vType="jeep" speedFactor="1.00" vaporized=""/>
    <tripinfo id="A2_1.0" depart="8.90" departLane="-793339796#2_1" departPos="5.10" departPosLat="0.00" departSpeed="29.35" departDelay="0.00" arrival="62.60" arrivalLane="-440471861#0_1" arrivalPos="31.52" arrivalPosLat="0.00" arrivalSpeed="29.23" duration="53.70" routeLength="1081.27" waitingTime="5.90" waitingCount="1" stopTime="0.00" timeLoss="16.79" rerouteNo="1" devices="tripinfo_A2_1.0 routing_A2_1.0" vType="car" speedFactor="1.06" vaporized=""/>
    <personinfo id="pf_2.1" depart="22.50" type="ped" speedFactor="1.08" duration="47.90" waitingTime="25.10" timeLoss="27.37" traveltime="47.90">
        <walk depart="22.50" departPos="15.09" arrival="70.40" arrivalPos="3.44" duration="47.90" routeLength="30.72" timeLoss="27.37" maxSpeed="1.50" waitingTime="25.10"/>
    </personinfo>
    <personinfo id="pf_2.2" depart="45.00" type="ped" speedFactor="0.99" duration="26.80" waitingTime="2.00" timeLoss="4.52" traveltime="26.80">
        <walk depart="45.00" departPos="15.09" arrival="71.80" arrivalPos="3.44" duration="26.80" routeLength="30.72" timeLoss="4.52" maxSpeed="1.38" waitingTime="2.00"/>
    </personinfo>
    <tripinfo id="D1_1.0" depart="1.20" departLane="140483224#1_1" departPos="5.10" departPosLat="0.00" departSpeed="27.86" departDelay="0.00" arrival="89.70" arrivalLane="-793339796#2_2" arrivalPos="82.50" arrivalPosLat="0.00" arrivalSpeed="27.75" duration="88.50" routeLength="1648.38" waitingTime="7.20" waitingCount="1" stopTime="0.00" timeLoss="27.02" rerouteNo="1" devices="tripinfo_D1_1.0 routing_D1_1.0" vType="car" speedFactor="1.00" vaporized=""/>
    <personinfo id="pf_2.3" depart="67.50" type="ped" speedFactor="1.13" duration="22.80" waitingTime="0.80" timeLoss="3.17" traveltime="22.80">
        <walk depart="67.50" departPos="15.09" arrival="90.30" arrivalPos="3.44" duration="22.80" routeLength="30.72" timeLoss="3.17" maxSpeed="1.57" waitingTime="0.80"/>
    </personinfo>
    <tripinfo id="A3_1.0" depart="31.50" departLane="-793339796#2_2" departPos="5.10" departPosLat="0.00" departSpeed="27.03" departDelay="0.50" arrival="90.60" arrivalLane="-140483224#1_2" arrivalPos="64.04" arrivalPosLat="0.00" arrivalSpeed="27.02" duration="59.10" routeLength="1080.94" waitingTime="7.00" waitingCount="1" stopTime="0.00" timeLoss="17.46" rerouteNo="1" devices="tripinfo_A3_1.0 routing_A3_1.0" vType="car" speedFactor="0.97" vaporized=""/>
    <tripinfo id="C3_1.1" depart="22.80" departLane="440471861#0_1" departPos="2.30" departPosLat="0.00" departSpeed="25.10" departDelay="0.00" arrival="98.30" arrivalLane="-140483224#1_1" arrivalPos="64.04" arrivalPosLat="0.00" arrivalSpeed="24.99" duration="75.50" routeLength="1055.58" waitingTime="18.80" waitingCount="2" stopTime="0.00" timeLoss="31.91" rerouteNo="1" devices="tripinfo_C3_1.1 routing_C3_1.1" vType="motorcycle" speedFactor="0.90" vaporized=""/>
    <tripinfo id="C3_1.0" depart="8.60" departLane="440471861#0_1" departPos="5.10" departPosLat="0.00" departSpeed="28.99" departDelay="0.00" arrival="99.90" arrivalLane="-140483224#1_2" arrivalPos="64.04" arrivalPosLat="0.00" arrivalSpeed="28.89" duration="91.30" routeLength="1052.78" waitingTime="38.40" waitingCount="2" stopTime="0.00" timeLoss="53.68" rerouteNo="1" devices="tripinfo_C3_1.0 routing_C3_1.0" vType="car" speedFactor="1.04" vaporized=""/>
    <tripinfo id="D3_1.0" depart="15.30" departLane="140483224#1_2" departPos="5.10" departPosLat="0.00" departSpeed="28.45" departDelay="0.00" arrival="101.90" arrivalLane="-440471861#0_2" arrivalPos="31.52" arrivalPosLat="0.00" arrivalSpeed="28.45" duration="86.60" routeLength="1067.97" waitingTime="38.70" waitingCount="1" stopTime="0.00" timeLoss="47.49" rerouteNo="1" devices="tripinfo_D3_1.0 routing_D3_1.0" vType="car" speedFactor="1.02" vaporized=""/>
    <personinfo id="pf_4.0" depart="0.00" type="ped" speedFactor="1.03" duration="115.40" waitingTime="0.00" timeLoss="11.54" traveltime="115.40">
        <walk depart="0.00" departPos="25.00" arrival="55.90" arrivalPos="29.11" duration="55.90" routeLength="72.15" timeLoss="5.39" maxSpeed="1.43" waitingTime="0.00"/>
        <walk depart="55.90" departPos="29.11" arrival="115.40" arrivalPos="29.05" duration="59.50" routeLength="76.20" timeLoss="6.15" maxSpeed="1.43" waitingTime="0.00"/>
    </personinfo>
    <tripinfo id="A2_1.2" depart="41.40" departLane="-793339796#2_1" departPos="5.10" departPosLat="0.00" departSpeed="28.78" departDelay="0.00" arrival="117.20" arrivalLane="-440471861#0_1" arrivalPos="31.52" arrivalPosLat="0.00" arrivalSpeed="28.66" duration="75.80" routeLength="1081.27" waitingTime="21.70" waitingCount="2" stopTime="0.00" timeLoss="38.17" rerouteNo="1" devices="tripinfo_A2_1.2 routing_A2_1.2" vType="car" speedFactor="1.04" vaporized=""/>
    <personinfo id="pf_2.4" depart="90.00" type="ped" speedFactor="1.05" duration="36.70" waitingTime="13.50" timeLoss="15.67" traveltime="36.70">
        <walk depart="90.00" departPos="15.09" arrival="126.70" arrivalPos="3.44" duration="36.70" routeLength="30.72" timeLoss="15.67" maxSpeed="1.46" waitingTime="13.50"/>
    </personinfo>
    <tripinfo id="A2_1.3" depart="54.50" departLane="-793339796#2_1" departPos="7.20" departPosLat="0.00" departSpeed="25.39" departDelay="0.40" arrival="126.70" arrivalLane="-440471861#0_1" arrivalPos="31.52" arrivalPosLat="0.00" arrivalSpeed="25.34" duration="72.20" routeLength="1079.17" waitingTime="13.90" waitingCount="1" stopTime="0.00" timeLoss="29.68" rerouteNo="1" devices="tripinfo_A2_1.3 routing_A2_1.3" vType="truck" speedFactor="0.91" vaporized=""/>
    <personinfo id="pf_4.1" depart="22.50" type="ped" speedFactor="1.04" duration="114.20" waitingTime="0.90" timeLoss="11.87" traveltime="114.20">
        <walk depart="22.50" departPos="25.00" arrival="78.60" arrivalPos="29.11" duration="56.10" routeLength="72.15" timeLoss="6.33" maxSpeed="1.45" waitingTime="0.90"/>
        <walk depart="78.60" departPos="29.11" arrival="136.70" arrivalPos="29.05" duration="58.10" routeLength="76.20" timeLoss="5.54" maxSpeed="1.45" waitingTime="0.00"/>
    </personinfo>
    <tripinfo id="C2_1.0" depart="40.30" departLane="440471861#0_2" departPos="12.10" departPosLat="0.00" departSpeed="27.78" departDelay="0.00" arrival="139.00" arrivalLane="-145894807#0_1" arrivalPos="260.95" arrivalPosLat="0.00" arrivalSpeed="8.29" duration="98.70" routeLength="1075.06" waitingTime="3.50" waitingCount="1" stopTime="0.00" timeLoss="13.68" rerouteNo="1" devices="tripinfo_C2_1.0 routing_C2_1.0" vType="bus" speedFactor="1.00" vaporized=""/>
    <tripinfo id="C1_1.0" depart="35.30" departLane="440471861#0_1" departPos="5.10" departPosLat="0.00" departSpeed="25.38" departDelay="0.00" arrival="147.90" arrivalLane="-793339796#2_2" arrivalPos="82.50" arrivalPosLat="0.00" arrivalSpeed="25.25" duration="112.60" routeLength="1653.99" waitingTime="17.10" waitingCount="2" stopTime="0.00" timeLoss="46.23" rerouteNo="1" devices="tripinfo_C1_1.0 routing_C1_1.0" vType="car" speedFactor="0.91" vaporized=""/>
    <personinfo id="pf_2.5" depart="112.50" type="ped" speedFactor="0.91" duration="37.10" waitingTime="10.10" timeLoss="12.91" traveltime="37.10">
        <walk depart="112.50" departPos="15.09" arrival="149.60" arrivalPos="3.44" duration="37.10" routeLength="30.72" timeLoss="12.91" maxSpeed="1.27" waitingTime="10.10"/>
    </personinfo>
    <tripinfo id="D2_1.0" depart="67.30" departLane="140483224#1_1" departPos="5.10" departPosLat="0.00" departSpeed="29.37" departDelay="0.00" arrival="149.80" arrivalLane="-145894807#0_1" arrivalPos="260.95" arrivalPosLat="0.00" arrivalSpeed="8.69" duration="82.50" routeLength="1092.76" waitingTime="0.00" waitingCount="0" stopTime="0.00" timeLoss="1.83" rerouteNo="1" devices="tripinfo_D2_1.0 routing_D2_1.0" vType="car" speedFactor="1.06" vaporized=""/>
    <tripinfo id="A3_1.1" depart="61.00" departLane="-793339796#2_1" departPos="12.10" departPosLat="0.00" departSpeed="27.78" departDelay="0.00" arrival="156.40" arrivalLane="-140483224#1_2" arrivalPos="64.04" arrivalPosLat="0.00" arrivalSpeed="27.73" duration="95.40" routeLength="1073.94" waitingTime="20.10" waitingCount="2" stopTime="0.00" timeLoss="55.20" rerouteNo="1" devices="tripinfo_A3_1.1 routing_A3_1.1" vType="bus" speedFactor="1.00" vaporized=""/>
    <personinfo id="pf_4.2" depart="45.00" type="ped" speedFactor="1.08" duration="112.40" waitingTime="2.70" timeLoss="13.51" traveltime="112.40">
        <walk depart="45.00" departPos="25.00" arrival="98.30" arrivalPos="29.11" duration="53.30" routeLength="72.15" timeLoss="5.21" maxSpeed="1.50" waitingTime="0.00"/>
        <walk depart="98.30" departPos="29.11" arrival="157.40" arrivalPos="29.05" duration="59.10" routeLength="76.20" timeLoss="8.31" maxSpeed="1.50" waitingTime="2.70"/>
    </personinfo>
    <tripinfo id="C3_1.2" depart="47.20" departLane="440471861#0_1" departPos="5.10" departPosLat="0.00" departSpeed="30.59" departDelay="0.00" arrival="157.80" arrivalLane="-140483224#1_1" arrivalPos="64.04" arrivalPosLat="0.00" arrivalSpeed="30.54" duration="110.60" routeLength="1052.78" waitingTime="51.00" waitingCount="2" stopTime="0.00" timeLoss="74.95" rerouteNo="1" devices="tripinfo_C3_1.2 routing_C3_1.2" vType="car" speedFactor="1.10" vaporized=""/>
    <tripinfo id="D1_1.1" depart="47.90" departLane="140483224#1_1" departPos="7.20" departPosLat="0.00" departSpeed="26.91" departDelay="0.00" arrival="170.70" arrivalLane="-793339796#2_2" arrivalPos="82.50" arrivalPosLat="0.00" arrivalSpeed="25.53" duration="122.80" routeLength="1646.28" waitingTime="8.20" waitingCount="2" stopTime="0.00" timeLoss="59.17" rerouteNo="1" devices="tripinfo_D1_1.1 routing_D1_1.1" vType="truck" speedFactor="0.97" vaporized=""/>
    <tripinfo id="C2_1.1" depart="54.60" departLane="440471861#0_2" departPos="5.10" departPosLat="0.00" departSpeed="34.31" departDelay="0.00" arrival="180.60" arrivalLane="-145894807#0_1" arrivalPos="260.95" arrivalPosLat="0.00" arrivalSpeed="10.21" duration="126.00" routeLength="1082.06" waitingTime="46.90" waitingCount="1" stopTime="0.00" timeLoss="56.95" rerouteNo="1" devices="tripinfo_C2_1.1 routing_C2_1.1" vType="car" speedFactor="1.24" vaporized=""/>
    <personinfo id="pf_2.7" depart="157.50" type="ped" speedFactor="1.03" duration="25.70" waitingTime="1.70" timeLoss="4.22" traveltime="25.70">
        <walk depart="157.50" departPos="15.09" arrival="183.20" arrivalPos="3.44" duration="25.70" routeLength="30.72" timeLoss="4.22" maxSpeed="1.43" waitingTime="1.70"/>
    </personinfo>
    <personinfo id="pf_2.6" depart="135.00" type="ped" speedFactor="1.00" duration="48.80" waitingTime="24.00" timeLoss="26.78" traveltime="48.80">
        <walk depart="135.00" departPos="15.09" arrival="183.80" arrivalPos="3.44" duration="48.80" routeLength="30.72" timeLoss="26.78" maxSpeed="1.39" waitingTime="24.00"/>
    </personinfo>
    <tripinfo id="A2_1.5" depart="142.80" departLane="-793339796#2_1" departPos="5.10" departPosLat="0.00" departSpeed="20.98" departDelay="12.90" arrival="185.00" arrivalLane="-440471861#0_2" arrivalPos="31.52" arrivalPosLat="0.00" arrivalSpeed="26.49" duration="42.20" routeLength="1081.27" waitingTime="0.00" waitingCount="0" stopTime="0.00" timeLoss="1.52" rerouteNo="1" devices="tripinfo_A2_1.5 routing_A2_1.5" vType="car" speedFactor="0.96" vaporized=""/>
    <tripinfo id="A2_1.4" depart="142.40" departLane="-793339796#2_1" departPos="5.10" departPosLat="0.00" departSpeed="24.79" departDelay="16.60" arrival="186.30" arrivalLane="-440471861#0_1" arrivalPos="31.52" arrivalPosLat="0.00" arrivalSpeed="24.67" duration="43.90" routeLength="1081.27" waitingTime="0.00" waitingCount="0" stopTime="0.00" timeLoss="0.18" rerouteNo="1" devices="tripinfo_A2_1.4 routing_A2_1.4" vType="car" speedFactor="0.89" vaporized=""/>
    <personinfo id="pf_4.3" depart="67.50" type="ped" speedFactor="0.99" duration="119.50" waitingTime="0.00" timeLoss="11.93" traveltime="119.50">
        <walk depart="67.50" departPos="25.00" arrival="125.60" arrivalPos="29.11" duration="58.10" routeLength="72.15" timeLoss="5.78" maxSpeed="1.38" waitingTime="0.00"/>
        <walk depart="125.60" departPos="29.11" arrival="187.00" arrivalPos="29.05" duration="61.40" routeLength="76.20" timeLoss="6.14" maxSpeed="1.38" waitingTime="0.00"/>
    </personinfo>
    <tripinfo id="B2_1.0" depart="13.90" departLane="-361257727#0_1" departPos="5.10" departPosLat="0.00" departSpeed="7.98" departDelay="0.00" arrival="194.40" arrivalLane="-440471861#0_1" arrivalPos="31.52" arrivalPosLat="-0.00" arrivalSpeed="26.59" duration="180.50" routeLength="1397.68" waitingTime="48.80" waitingCount="1" stopTime="0.00" timeLoss="58.41" rerouteNo="1" devices="tripinfo_B2_1.0 routing_B2_1.0" vType="car" speedFactor="0.96" vaporized=""/>
    <tripinfo id="B2_1.1" depart="62.00" departLane="-361257727#0_1" departPos="8.10" departPosLat="0.00" departSpeed="8.33" departDelay="0.00" arrival="202.70" arrivalLane="-440471861#0_1" arrivalPos="31.52" arrivalPosLat="-0.00" arrivalSpeed="27.76" duration="140.70" routeLength="1394.68" waitingTime="1.90" waitingCount="1" stopTime="0.00" timeLoss="24.06" rerouteNo="1" devices="tripinfo_B2_1.1 routing_B2_1.1" vType="jeep" speedFactor="1.00" vaporized=""/>
    <personinfo id="pf_2.8" depart="180.00" type="ped" speedFactor="0.98" duration="25.00" waitingTime="0.00" timeLoss="2.52" traveltime="25.00">
        <walk depart="180.00" departPos="15.09" arrival="205.00" arrivalPos="3.44" duration="25.00" routeLength="30.72" timeLoss="2.52" maxSpeed="1.37" waitingTime="0.00"/>
    </personinfo>
    <tripinfo id="C1_1.3" depart="82.10" departLane="440471861#0_1" departPos="5.10" departPosLat="0.00" departSpeed="24.54" departDelay="0.00" arrival="205.30" arrivalLane="-793339796#2_2" arrivalPos="82.50" arrivalPosLat="0.00" arrivalSpeed="24.50" duration="123.20" routeLength="1653.99" waitingTime="25.30" waitingCount="2" stopTime="0.00" timeLoss="54.57" rerouteNo="1" devices="tripinfo_C1_1.3 routing_C1_1.3" vType="car" speedFactor="0.88" vaporized=""/>
    <tripinfo id="A3_1.2" depart="142.40" departLane="-793339796#2_2" departPos="2.30" departPosLat="0.00" departSpeed="31.39" departDelay="15.30" arrival="205.60" arrivalLane="-140483224#1_2" arrivalPos="64.04" arrivalPosLat="0.00" arrivalSpeed="31.33" duration="63.20" routeLength="1083.74" waitingTime="14.50" waitingCount="1" stopTime="0.00" timeLoss="27.35" rerouteNo="1" devices="tripinfo_A3_1.2 routing_A3_1.2" vType="tricycle" speedFactor="1.13" vaporized=""/>
    <tripinfo id="C3_1.4" depart="109.30" departLane="440471861#0_1" departPos="8.10" departPosLat="0.00" departSpeed="27.78" departDelay="0.00" arrival="214.00" arrivalLane="-140483224#1_1" arrivalPos="64.04" arrivalPosLat="-0.00" arrivalSpeed="27.73" duration="104.70" routeLength="1049.78" waitingTime="42.30" waitingCount="1" stopTime="0.00" timeLoss="65.51" rerouteNo="1" devices="tripinfo_C3_1.4 routing_C3_1.4" vType="jeep" speedFactor="1.00" vaporized=""/>
    <tripinfo id="D1_1.2" depart="74.50" departLane="140483224#1_1" departPos="7.20" departPosLat="0.00" departSpeed="27.47" departDelay="0.00" arrival="215.60" arrivalLane="-793339796#2_2" arrivalPos="82.50" arrivalPosLat="0.00" arrivalSpeed="25.28" duration="141.10" routeLength="1646.28" waitingTime="29.80" waitingCount="3" stopTime="0.00" timeLoss="78.77" rerouteNo="1" devices="tripinfo_D1_1.2 routing_D1_1.2" vType="truck" speedFactor="0.99" vaporized=""/>
    <tripinfo id="D2_1.1" depart="93.70" departLane="140483224#1_1" departPos="5.10" departPosLat="0.00" departSpeed="24.64" departDelay="0.00" arrival="216.00" arrivalLane="-145894807#0_1" arrivalPos="260.95" arrivalPosLat="0.00" arrivalSpeed="7.31" duration="122.30" routeLength="1092.76" waitingTime="7.90" waitingCount="2" stopTime="0.00" timeLoss="26.10" rerouteNo="1" devices="tripinfo_D2_1.1 routing_D2_1.1" vType="car" speedFactor="0.89" vaporized=""/>
    <personinfo id="pf_4.4" depart="90.00" type="ped" speedFactor="0.98" duration="129.00" waitingTime="7.80" timeLoss="20.23" traveltime="129.00">
        <walk depart="90.00" departPos="25.00" arrival="150.40" arrivalPos="29.11" duration="60.40" routeLength="72.15" timeLoss="7.50" maxSpeed="1.36" waitingTime="1.40"/>
        <walk depart="150.40" departPos="29.11" arrival="219.00" arrivalPos="29.05" duration="68.60" routeLength="76.20" timeLoss="12.73" maxSpeed="1.36" waitingTime="6.40"/>
    </personinfo>
    <tripinfo id="D1_1.3" depart="92.30" departLane="140483224#1_1" departPos="5.10" departPosLat="0.00" departSpeed="33.02" departDelay="0.00" arrival="219.10" arrivalLane="-793339796#2_1" arrivalPos="82.50" arrivalPosLat="0.00" arrivalSpeed="32.96" duration="126.80" routeLength="1648.38" waitingTime="16.50" waitingCount="3" stopTime="0.00" timeLoss="74.82" rerouteNo="1" devices="tripinfo_D1_1.3 routing_D1_1.3" vType="car" speedFactor="1.19" vaporized=""/>
    <tripinfo id="C3_1.3" depart="87.10" departLane="440471861#0_1" departPos="7.20" departPosLat="0.00" departSpeed="29.74" departDelay="0.00" arrival="219.40" arrivalLane="-140483224#1_2" arrivalPos="64.04" arrivalPosLat="0.00" arrivalSpeed="29.74" duration="132.30" routeLength="1050.68" waitingTime="55.20" waitingCount="3" stopTime="0.00" timeLoss="95.72" rerouteNo="1" devices="tripinfo_C3_1.3 routing_C3_1.3" vType="truck" speedFactor="1.07" vaporized=""/>
    <tripinfo id="C1_1.1" depart="57.10" departLane="440471861#0_1" departPos="8.10" departPosLat="0.00" departSpeed="27.78" departDelay="0.00" arrival="220.10" arrivalLane="-793339796#2_2" arrivalPos="82.50" arrivalPosLat="0.00" arrivalSpeed="24.45" duration="163.00" routeLength="1650.99" waitingTime="50.40" waitingCount="2" stopTime="0.00" timeLoss="102.50" rerouteNo="1" devices="tripinfo_C1_1.1 routing_C1_1.1" vType="jeep" speedFactor="1.00" vaporized=""/>
    <tripinfo id="D3_1.1" depart="179.60" departLane="140483224#1_2" departPos="5.10" departPosLat="0.00" departSpeed="29.50" departDelay="0.00" arrival="221.50" arrivalLane="-440471861#0_2" arrivalPos="31.52" arrivalPosLat="0.00" arrivalSpeed="29.40" duration="41.90" routeLength="1067.97" waitingTime="0.00" waitingCount="0" stopTime="0.00" timeLoss="4.15" rerouteNo="1" devices="tripinfo_D3_1.1 routing_D3_1.1" vType="car" speedFactor="1.06" vaporized=""/>
    <personinfo id="pf_4.5" depart="112.50" type="ped" speedFactor="1.08" duration="112.80" waitingTime="3.50" timeLoss="14.24" traveltime="112.80">
        <walk depart="112.50" departPos="25.00" arrival="165.70" arrivalPos="29.11" duration="53.20" routeLength="72.15" timeLoss="5.27" maxSpeed="1.51" waitingTime="0.00"/>
        <walk depart="165.70" departPos="29.11" arrival="225.30" arrivalPos="29.05" duration="59.60" routeLength="76.20" timeLoss="8.97" maxSpeed="1.51" waitingTime="3.50"/>
    </personinfo>
    <tripinfo id="D1_1.4" depart="112.20" departLane="140483224#1_1" departPos="8.10" departPosLat="0.00" departSpeed="27.78" departDelay="0.00" arrival="226.60" arrivalLane="-793339796#2_1" arrivalPos="82.50" arrivalPosLat="0.00" arrivalSpeed="24.52" duration="114.40" routeLength="1645.38" waitingTime="0.10" waitingCount="1" stopTime="0.00" timeLoss="52.73" rerouteNo="1" devices="tripinfo_D1_1.4 routing_D1_1.4" vType="jeep" speedFactor="1.00" vaporized=""/>
    <tripinfo id="D1_1.5" depart="117.10" departLane="140483224#1_1" departPos="8.10" departPosLat="0.00" departSpeed="27.78" departDelay="0.00" arrival="230.40" arrivalLane="-793339796#2_2" arrivalPos="82.50" arrivalPosLat="0.00" arrivalSpeed="24.39" duration="113.30" routeLength="1645.38" waitingTime="0.00" waitingCount="0" stopTime="0.00" timeLoss="51.66" rerouteNo="1" devices="tripinfo_D1_1.5 routing_D1_1.5" vType="jeep" speedFactor="1.00" vaporized=""/>
    <personinfo id="pf_4.6" depart="135.00" type="ped" speedFactor="1.24" duration="95.50" waitingTime="0.00" timeLoss="9.44" traveltime="95.50">
        <walk depart="135.00" departPos="25.00" arrival="181.50" arrivalPos="29.11" duration="46.50" routeLength="72.15" timeLoss="4.64" maxSpeed="1.72" waitingTime="0.00"/>
        <walk depart="181.50" departPos="29.11" arrival="230.50" arrivalPos="29.05" duration="49.00" routeLength="76.20" timeLoss="4.80" maxSpeed="1.72" waitingTime="0.00"/>
    </personinfo>
    <tripinfo id="B1_1.0" depart="75.60" departLane="-361257727#0_1" departPos="5.10" departPosLat="0.00" departSpeed="8.37" departDelay="0.00" arrival="231.70" arrivalLane="-793339796#2_2" arrivalPos="82.50" arrivalPosLat="0.00" arrivalSpeed="26.21" duration="156.10" routeLength="1915.44" waitingTime="0.00" waitingCount="0" stopTime="0.00" timeLoss="21.99" rerouteNo="1" devices="tripinfo_B1_1.0 routing_B1_1.0" vType="car" speedFactor="1.00" vaporized=""/>
    <personinfo id="pf_2.9" depart="202.50" type="ped" speedFactor="0.94" duration="38.10" waitingTime="11.90" timeLoss="14.57" traveltime="38.10">
        <walk depart="202.50" departPos="15.09" arrival="240.60" arrivalPos="3.44" duration="38.10" routeLength="30.72" timeLoss="14.57" maxSpeed="1.31" waitingTime="11.90"/>
    </personinfo>
    <tripinfo id="A1_1.0" depart="161.60" departLane="-793339796#2_1" departPos="5.10" departPosLat="0.00" departSpeed="27.30" departDelay="3.70" arrival="256.30" arrivalLane="-145894807#0_1" arrivalPos="260.95" arrivalPosLat="0.00" arrivalSpeed="8.11" duration="94.70" routeLength="1056.72" waitingTime="0.00" waitingCount="0" stopTime="0.00" timeLoss="3.56" rerouteNo="1" devices="tripinfo_A1_1.0 routing_A1_1.0" vType="car" speedFactor="0.98" vaporized=""/>
    <tripinfo id="C1_1.4" depart="125.70" departLane="440471861#0_1" departPos="5.10" departPosLat="0.00" departSpeed="28.41" departDelay="0.00" arrival="257.40" arrivalLane="-793339796#2_2" arrivalPos="82.50" arrivalPosLat="0.00" arrivalSpeed="28.37" duration="131.70" routeLength="1653.99" waitingTime="33.70" waitingCount="2" stopTime="0.00" timeLoss="72.37" rerouteNo="1" devices="tripinfo_C1_1.4 routing_C1_1.4" vType="car" speedFactor="1.02" vaporized=""/>
    <personinfo id="pf_2.10" depart="225.00" type="ped" speedFactor="1.09" duration="33.70" waitingTime="11.00" timeLoss="13.35" traveltime="33.70">
        <walk depart="225.00" departPos="15.09" arrival="258.70" arrivalPos="3.44" duration="33.70" routeLength="30.72" timeLoss="13.35" maxSpeed="1.51" waitingTime="11.00"/>
    </personinfo>
    <personinfo id="pf_1.0" depart="0.00" type="ped" speedFactor="1.06" duration="259.00" waitingTime="23.80" timeLoss="47.30" traveltime="259.00">
        <walk depart="0.00" departPos="25.00" arrival="259.00" arrivalPos="3.44" duration="259.00" routeLength="311.67" timeLoss="47.30" maxSpeed="1.47" waitingTime="23.80"/>
    </personinfo>
    <tripinfo id="A3_1.3" depart="173.20" departLane="-793339796#2_2" departPos="5.10" departPosLat="0.00" departSpeed="22.79" departDelay="0.00" arrival="261.20" arrivalLane="-140483224#1_2" arrivalPos="64.04" arrivalPosLat="0.00" arrivalSpeed="22.72" duration="88.00" routeLength="1080.94" waitingTime="20.00" waitingCount="3" stopTime="0.00" timeLoss="38.70" rerouteNo="1" devices="tripinfo_A3_1.3 routing_A3_1.3" vType="car" speedFactor="0.82" vaporized=""/>
    <tripinfo id="B3_1.0" depart="127.70" departLane="-361257727#0_1" departPos="8.10" departPosLat="0.00" departSpeed="8.33" departDelay="0.00" arrival="261.30" arrivalLane="-140483224#1_1" arrivalPos="64.04" arrivalPosLat="0.00" arrivalSpeed="27.78" duration="133.60" routeLength="1407.94" waitingTime="0.00" waitingCount="0" stopTime="0.00" timeLoss="16.74" rerouteNo="1" devices="tripinfo_B3_1.0 routing_B3_1.0" vType="jeep" speedFactor="1.00" vaporized=""/>
    <tripinfo id="C1_1.2" depart="63.70" departLane="440471861#0_1" departPos="2.30" departPosLat="0.00" departSpeed="25.73" departDelay="0.00" arrival="263.20" arrivalLane="-793339796#2_2" arrivalPos="82.50" arrivalPosLat="0.00" arrivalSpeed="25.72" duration="199.50" routeLength="1656.79" waitingTime="95.70" waitingCount="4" stopTime="0.00" timeLoss="133.86" rerouteNo="1" devices="tripinfo_C1_1.2 routing_C1_1.2" vType="tricycle" speedFactor="0.93" vaporized=""/>
    <tripinfo id="D2_1.2" depart="134.80" departLane="140483224#1_1" departPos="5.10" departPosLat="0.00" departSpeed="25.50" departDelay="0.00" arrival="264.20" arrivalLane="-145894807#0_1" arrivalPos="260.95" arrivalPosLat="0.00" arrivalSpeed="7.60" duration="129.40" routeLength="1092.76" waitingTime="23.90" waitingCount="2" stopTime="0.00" timeLoss="36.46" rerouteNo="1" devices="tripinfo_D2_1.2 routing_D2_1.2" vType="car" speedFactor="0.92" vaporized=""/>
    <tripinfo id="C3_1.5" depart="156.50" departLane="440471861#0_1" departPos="8.10" departPosLat="0.00" departSpeed="27.78" departDelay="0.00" arrival="269.40" arrivalLane="-140483224#1_1" arrivalPos="64.04" arrivalPosLat="0.00" arrivalSpeed="27.78" duration="112.90" routeLength="1049.78" waitingTime="44.30" waitingCount="1" stopTime="0.00" timeLoss="73.71" rerouteNo="1" devices="tripinfo_C3_1.5 routing_C3_1.5" vType="jeep" speedFactor="1.00" vaporized=""/>
    <tripinfo id="D3_1.2" depart="201.70" departLane="140483224#1_2" departPos="5.10" departPosLat="0.00" departSpeed="25.75" departDelay="0.00" arrival="271.20" arrivalLane="-440471861#0_2" arrivalPos="31.52" arrivalPosLat="0.00" arrivalSpeed="25.72" duration="69.50" routeLength="1067.97" waitingTime="18.70" waitingCount="1" stopTime="0.00" timeLoss="26.40" rerouteNo="1" devices="tripinfo_D3_1.2 routing_D3_1.2" vType="car" speedFactor="0.93" vaporized=""/>
    <tripinfo id="D3_1.3" depart="206.80" departLane="140483224#1_1" departPos="2.30" departPosLat="0.00" departSpeed="29.34" departDelay="0.00" arrival="272.70" arrivalLane="-440471861#0_2" arrivalPos="31.52" arrivalPosLat="0.00" arrivalSpeed="29.27" duration="65.90" routeLength="1070.77" waitingTime="13.80" waitingCount="2" stopTime="0.00" timeLoss="27.95" rerouteNo="1" devices="tripinfo_D3_1.3 routing_D3_1.3" vType="tricycle" speedFactor="1.06" vaporized=""/>
    <personinfo id="pf_4.7" depart="157.50" type="ped" speedFactor="1.06" duration="116.40" waitingTime="4.40" timeLoss="15.71" traveltime="116.40">
        <walk depart="157.50" departPos="25.00" arrival="216.30" arrivalPos="29.11" duration="58.80" routeLength="72.15" timeLoss="9.83" maxSpeed="1.47" waitingTime="4.40"/>
        <walk depart="216.30" departPos="29.11" arrival="273.90" arrivalPos="29.05" duration="57.60" routeLength="76.20" timeLoss="5.88" maxSpeed="1.47" waitingTime="0.00"/>
    </personinfo>
    <tripinfo id="D3_1.4" depart="212.70" departLane="140483224#1_2" departPos="5.10" departPosLat="0.00" departSpeed="27.90" departDelay="0.00" arrival="275.50" arrivalLane="-440471861#0_2" arrivalPos="31.52" arrivalPosLat="0.00" arrivalSpeed="27.89" duration="62.80" routeLength="1067.97" waitingTime="1.60" waitingCount="1" stopTime="0.00" timeLoss="23.01" rerouteNo="1" devices="tripinfo_D3_1.4 routing_D3_1.4" vType="car" speedFactor="1.00" vaporized=""/>
    <tripinfo id="D3_1.5" depart="231.30" departLane="140483224#1_2" departPos="5.10" departPosLat="0.00" departSpeed="27.99" departDelay="0.00" arrival="277.00" arrivalLane="-440471861#0_2" arrivalPos="31.52" arrivalPosLat="0.00" arrivalSpeed="27.91" duration="45.70" routeLength="1067.97" waitingTime="0.00" waitingCount="0" stopTime="0.00" timeLoss="5.99" rerouteNo="1" devices="tripinfo_D3_1.5 routing_D3_1.5" vType="car" speedFactor="1.01" vaporized=""/>
    <personinfo id="pf_4.8" depart="180.00" type="ped" speedFactor="1.09" duration="108.70" waitingTime="0.00" timeLoss="10.48" traveltime="108.70">
        <walk depart="180.00" departPos="25.00" arrival="233.00" arrivalPos="29.11" duration="53.00" routeLength="72.15" timeLoss="5.23" maxSpeed="1.51" waitingTime="0.00"/>