<?xml version="1.0" encoding="UTF-8"?>

<!-- generated on 2025-10-30 15:47:14 by Eclipse SUMO GUI Version 1.24.0
<sumoConfiguration xmlns:xsi="http://www.w3.org/2001/XMLSchema-instance" xsi:noNamespaceSchemaLocation="http://sumo.dlr.de/xsd/sumoConfiguration.xsd">

    <input>
        <net-file value="network/map.net.xml"/>
        <route-files value="demand/flows_edge_based_filtered.flows.xml"/>
        <additional-files value="additionals/map.poly.xml,additionals/detectors.add.xml"/>
    </input>

    <output>
        <summary-output value="output/summary.xml"/>
        <tripinfo-output value="output/tripinfo.xml"/>
        <statistic-output value="output/statistics.xml"/>
    </output>

    <time>
        <begin value="0"/>
        <end value="18000"/>
        <step-length value="1"/>
    </time>

    <processing>
        <ignore-route-errors value="true"/>
        <ignore-accidents value="false"/>
        <max-depart-delay value="900"/>
        <time-to-impatience value="300"/>
    </processing>

    <routing>
        <device.rerouting.adaptation-steps value="18"/>
        <device.rerouting.adaptation-interval value="10"/>
        <device.rerouting.with-taz value="false"/>
    </routing>

    <report>
        <verbose value="true"/>
        <duration-log.statistics value="true"/>
        <no-step-log value="false"/>
    </report>

</sumoConfiguration>
-->

<tripinfos xmlns:xsi="http://www.w3.org/2001/XMLSchema-instance" xsi:noNamespaceSchemaLocation="http://sumo.dlr.de/xsd/tripinfo_file.xsd">
    <tripinfo id="flow_8170.0" depart="0.00" departLane="-793339796#0_1" departPos="5.10" departSpeed="36.68" departDelay="0.00" arrival="7.00" arrivalLane="-361256298#2_1" arrivalPos="64.33" arrivalSpeed="15.56" duration="7.00" routeLength="163.86" waitingTime="0.00" waitingCount="0" stopTime="0.00" timeLoss="2.42" rerouteNo="1" devices="tripinfo_flow_8170.0 routing_flow_8170.0" vType="DEFAULT_VEHTYPE" speedFactor="1.32" vaporized=""/>
    <tripinfo id="flow_399.0" depart="5.00" departLane="-140483178#3_0" departPos="5.10" departSpeed="18.92" departDelay="5.00" arrival="14.00" arrivalLane="-140483178#3_0" arrivalPos="94.36" arrivalSpeed="10.48" duration="9.00" routeLength="89.26" waitingTime="0.00" waitingCount="0" stopTime="0.00" timeLoss="4.77" rerouteNo="1" devices="tripinfo_flow_399.0 routing_flow_399.0" vType="DEFAULT_VEHTYPE" speedFactor="1.01" vaporized=""/>
    <tripinfo id="flow_4446.0" depart="0.00" departLane="114920907#1_1" departPos="5.10" departSpeed="12.66" departDelay="0.00" arrival="16.00" arrivalLane="114920907#1_1" arrivalPos="186.84" arrivalSpeed="12.21" duration="16.00" routeLength="181.74" waitingTime="0.00" waitingCount="0" stopTime="0.00" timeLoss="0.69" rerouteNo="1" devices="tripinfo_flow_4446.0 routing_flow_4446.0" vType="DEFAULT_VEHTYPE" speedFactor="0.91" vaporized=""/>
    <tripinfo id="flow_6251.0" depart="0.00" departLane="140483224#8_2" departPos="5.10" departSpeed="22.08" departDelay="0.00" arrival="20.00" arrivalLane="-140483224#11_1" arrivalPos="2.96" arrivalSpeed="9.51" duration="20.00" routeLength="212.60" waitingTime="0.00" waitingCount="0" stopTime="0.00" timeLoss="10.59" rerouteNo="1" devices="tripinfo_flow_6251.0 routing_flow_6251.0" vType="DEFAULT_VEHTYPE" speedFactor="0.90" vaporized=""/>
    <tripinfo id="flow_3325.0" depart="9.00" departLane="-140483178#4_0" departPos="5.10" departSpeed="15.14" departDelay="9.00" arrival="21.00" arrivalLane="-140483178#4_0" arrivalPos="81.66" arrivalSpeed="7.58" duration="12.00" routeLength="76.56" waitingTime="0.00" waitingCount="0" stopTime="0.00" timeLoss="8.21" rerouteNo="1" devices="tripinfo_flow_3325.0 routing_flow_3325.0" vType="DEFAULT_VEHTYPE" speedFactor="0.92" vaporized=""/>
    <tripinfo id="flow_2090.0" depart="0.00" departLane="-140483224#12_1" departPos="5.10" departSpeed="20.71" departDelay="0.00" arrival="28.00" arrivalLane="-894517879_1" arrivalPos="25.85" arrivalSpeed="11.08" duration="28.00" routeLength="476.56" waitingTime="0.00" waitingCount="0" stopTime="0.00" timeLoss="6.60" rerouteNo="1" devices="tripinfo_flow_2090.0 routing_flow_2090.0" vType="DEFAULT_VEHTYPE" speedFactor="0.93" vaporized=""/>
    <tripinfo id="flow_1102.0" depart="0.00" departLane="361256298#2_1" departPos="5.10" departSpeed="28.44" departDelay="0.00" arrival="40.00" arrivalLane="114920907#1_1" arrivalPos="186.84" arrivalSpeed="9.79" duration="40.00" routeLength="486.86" waitingTime="0.00" waitingCount="0" stopTime="0.00" timeLoss="10.86" rerouteNo="1" devices="tripinfo_flow_1102.0 routing_flow_1102.0" vType="DEFAULT_VEHTYPE" speedFactor="1.02" vaporized=""/>
    <tripinfo id="flow_10146.0" depart="1.00" departLane="667982626_1" departPos="5.10" departSpeed="10.62" departDelay="1.00" arrival="41.00" arrivalLane="140483178#2_0" arrivalPos="5.46" arrivalSpeed="19.32" duration="40.00" routeLength="481.13" waitingTime="0.00" waitingCount="0" stopTime="0.00" timeLoss="10.79" rerouteNo="1" devices="tripinfo_flow_10146.0 routing_flow_10146.0" vType="DEFAULT_VEHTYPE" speedFactor="1.04" vaporized=""/>
    <tripinfo id="flow_5301.0" depart="0.00" departLane="894517879_1" departPos="5.10" departSpeed="11.42" departDelay="0.00" arrival="42.00" arrivalLane="-140483224#12_1" arrivalPos="63.66" arrivalSpeed="6.49" duration="42.00" routeLength="556.33" waitingTime="0.00" waitingCount="0" stopTime="0.00" timeLoss="17.95" rerouteNo="1" devices="tripinfo_flow_5301.0 routing_flow_5301.0" vType="DEFAULT_VEHTYPE" speedFactor="0.97" vaporized=""/>
    <tripinfo id="flow_6384.0" depart="0.00" departLane="140483224#7_2" departPos="5.10" departSpeed="13.94" departDelay="0.00" arrival="44.00" arrivalLane="-93590611#1_1" arrivalPos="106.63" arrivalSpeed="15.03" duration="44.00" routeLength="505.60" waitingTime="3.00" waitingCount="1" stopTime="0.00" timeLoss="21.10" rerouteNo="1" devices="tripinfo_flow_6384.0 routing_flow_6384.0" vType="DEFAULT_VEHTYPE" speedFactor="1.16" vaporized=""/>
    <tripinfo id="flow_8664.0" depart="4.00" departLane="361257726_1" departPos="5.10" departSpeed="12.13" departDelay="4.00" arrival="45.00" arrivalLane="361260925#2_1" arrivalPos="89.10" arrivalSpeed="8.89" duration="41.00" routeLength="345.73" waitingTime="0.00" waitingCount="0" stopTime="0.00" timeLoss="6.05" rerouteNo="1" devices="tripinfo_flow_8664.0 routing_flow_8664.0" vType="DEFAULT_VEHTYPE" speedFactor="1.08" vaporized=""/>
    <tripinfo id="flow_8246.0" depart="0.00" departLane="-793339796#1_2" departPos="5.10" departSpeed="18.78" departDelay="0.00" arrival="46.00" arrivalLane="114920907#1_1" arrivalPos="186.84" arrivalSpeed="10.11" duration="46.00" routeLength="385.36" waitingTime="5.00" waitingCount="1" stopTime="0.00" timeLoss="11.35" rerouteNo="1" devices="tripinfo_flow_8246.0 routing_flow_8246.0" vType="DEFAULT_VEHTYPE" speedFactor="0.76" vaporized=""/>
    <tripinfo id="flow_8265.0" depart="6.00" departLane="-793339796#1_2" departPos="5.10" departSpeed="13.36" departDelay="6.00" arrival="48.00" arrivalLane="114920907#1_1" arrivalPos="186.84" arrivalSpeed="13.53" duration="42.00" routeLength="385.36" waitingTime="0.00" waitingCount="0" stopTime="0.00" timeLoss="16.57" rerouteNo="1" devices="tripinfo_flow_8265.0 routing_flow_8265.0" vType="DEFAULT_VEHTYPE" speedFactor="1.06" vaporized=""/>
    <tripinfo id="flow_2280.0" depart="0.00" departLane="-140483224#11_1" departPos="2.96" departSpeed="26.15" departDelay="0.00" arrival="58.00" arrivalLane="-140483224#0_2" arrivalPos="1075.84" arrivalSpeed="26.03" duration="58.00" routeLength="1464.28" waitingTime="0.00" waitingCount="0" stopTime="0.00" timeLoss="1.63" rerouteNo="1" devices="tripinfo_flow_2280.0 routing_flow_2280.0" vType="DEFAULT_VEHTYPE" speedFactor="0.94" vaporized=""/>
    <tripinfo id="flow_1045.0" depart="0.00" departLane="-361256298#2_1" departPos="5.10" departSpeed="27.67" departDelay="0.00" arrival="63.00" arrivalLane="361260925#4_1" arrivalPos="36.05" arrivalSpeed="7.83" duration="63.00" routeLength="545.69" waitingTime="0.00" waitingCount="0" stopTime="0.00" timeLoss="11.88" rerouteNo="1" devices="tripinfo_flow_1045.0 routing_flow_1045.0" vType="DEFAULT_VEHTYPE" speedFactor="1.00" vaporized=""/>
    <tripinfo id="flow_6726.0" depart="1.00" departLane="-361256298#0_2" departPos="5.10" departSpeed="14.92" departDelay="1.00" arrival="71.00" arrivalLane="-140483224#11_1" arrivalPos="2.96" arrivalSpeed="6.13" duration="70.00" routeLength="301.48" waitingTime="29.00" waitingCount="2" stopTime="0.00" timeLoss="57.52" rerouteNo="1" devices="tripinfo_flow_6726.0 routing_flow_6726.0" vType="DEFAULT_VEHTYPE" speedFactor="0.98" vaporized=""/>
    <tripinfo id="flow_5453.0" depart="2.00" departLane="-93590611#1_1" departPos="5.10" departSpeed="10.21" departDelay="2.00" arrival="73.00" arrivalLane="140483224#8_2" arrivalPos="7.00" arrivalSpeed="23.78" duration="71.00" routeLength="464.54" waitingTime="22.00" waitingCount="1" stopTime="0.00" timeLoss="38.22" rerouteNo="1" devices="tripinfo_flow_5453.0 routing_flow_5453.0" vType="DEFAULT_VEHTYPE" speedFactor="0.89" vaporized=""/>
    <tripinfo id="flow_1995.0" depart="6.00" departLane="140483224#12_1" departPos="5.10" departSpeed="14.88" departDelay="6.00" arrival="76.00" arrivalLane="140483249#0_1" arrivalPos="46.30" arrivalSpeed="8.05" duration="70.00" routeLength="597.83" waitingTime="0.00" waitingCount="0" stopTime="0.00" timeLoss="14.73" rerouteNo="1" devices="tripinfo_flow_1995.0 routing_flow_1995.0" vType="DEFAULT_VEHTYPE" speedFactor="1.07" vaporized=""/>
    <tripinfo id="flow_10336.0" depart="0.00" departLane="140483224#1_2" departPos="5.10" departSpeed="28.09" departDelay="0.00" arrival="77.00" arrivalLane="140483254#0_1" arrivalPos="28.53" arrivalSpeed="11.26" duration="77.00" routeLength="1196.28" waitingTime="0.00" waitingCount="0" stopTime="0.00" timeLoss="24.26" rerouteNo="1" devices="tripinfo_flow_10336.0 routing_flow_10336.0" vType="DEFAULT_VEHTYPE" speedFactor="1.01" vaporized=""/>
    <tripinfo id="flow_1729.0" depart="2.00" departLane="123172358_1" departPos="5.10" departSpeed="5.55" departDelay="2.00" arrival="78.00" arrivalLane="-793339796#1_2" arrivalPos="54.02" arrivalSpeed="23.81" duration="76.00" routeLength="1055.52" waitingTime="0.00" waitingCount="0" stopTime="0.00" timeLoss="19.87" rerouteNo="1" devices="tripinfo_flow_1729.0 routing_flow_1729.0" vType="DEFAULT_VEHTYPE" speedFactor="0.89" vaporized=""/>
    <tripinfo id="flow_2451.0" depart="6.00" departLane="140483211_1" departPos="5.10" departSpeed="8.40" departDelay="6.00" arrival="81.00" arrivalLane="-140483224#12_1" arrivalPos="63.66" arrivalSpeed="14.53" duration="75.00" routeLength="482.54" waitingTime="19.00" waitingCount="1" stopTime="0.00" timeLoss="31.33" rerouteNo="1" devices="tripinfo_flow_2451.0 routing_flow_2451.0" vType="DEFAULT_VEHTYPE" speedFactor="1.01" vaporized=""/>
    <tripinfo id="flow_6042.0" depart="0.00" departLane="-361256298#1_1" departPos="5.10" departSpeed="32.77" departDelay="0.00" arrival="81.00" arrivalLane="140483254#0_1" arrivalPos="28.53" arrivalSpeed="11.56" duration="81.00" routeLength="846.95" waitingTime="22.00" waitingCount="1" stopTime="0.00" timeLoss="46.78" rerouteNo="1" devices="tripinfo_flow_6042.0 routing_flow_6042.0" vType="DEFAULT_VEHTYPE" speedFactor="1.18" vaporized=""/>
    <tripinfo id="flow_12236.0" depart="8.00" departLane="-361256298#1_1" departPos="5.10" departSpeed="6.10" departDelay="8.00" arrival="94.00" arrivalLane="140483254#0_1" arrivalPos="28.53" arrivalSpeed="11.05" duration="86.00" routeLength="846.95" waitingTime="12.00" waitingCount="1" stopTime="0.00" timeLoss="41.58" rerouteNo="1" devices="tripinfo_flow_12236.0 routing_flow_12236.0" vType="DEFAULT_VEHTYPE" speedFactor="0.91" vaporized=""/>
    <tripinfo id="flow_10051.0" depart="1.00" departLane="-667982626_1" departPos="5.10" departSpeed="10.04" departDelay="1.00" arrival="97.00" arrivalLane="140483224#12_2" arrivalPos="63.66" arrivalSpeed="27.21" duration="96.00" routeLength="727.34" waitingTime="29.00" waitingCount="1" stopTime="0.00" timeLoss="50.58" rerouteNo="1" devices="tripinfo_flow_10051.0 routing_flow_10051.0" vType="DEFAULT_VEHTYPE" speedFactor="0.99" vaporized=""/>
    <tripinfo id="flow_703.0" depart="6.00" departLane="-140483178#2_0" departPos="5.10" departSpeed="17.84" departDelay="6.00" arrival="102.00" arrivalLane="140483224#6_2" arrivalPos="41.64" arrivalSpeed="18.96" duration="96.00" routeLength="442.78" waitingTime="45.00" waitingCount="2" stopTime="0.00" timeLoss="76.24" rerouteNo="1" devices="tripinfo_flow_703.0 routing_flow_703.0" vType="DEFAULT_VEHTYPE" speedFactor="1.18" vaporized=""/>
    <tripinfo id="flow_2717.0" depart="4.00" departLane="-361256298#2_2" departPos="5.10" departSpeed="11.55" departDelay="4.00" arrival="102.00" arrivalLane="140483254#0_1" arrivalPos="28.53" arrivalSpeed="13.33" duration="98.00" routeLength="935.84" waitingTime="18.00" waitingCount="1" stopTime="0.00" timeLoss="59.31" rerouteNo="1" devices="tripinfo_flow_2717.0 routing_flow_2717.0" vType="DEFAULT_VEHTYPE" speedFactor="1.13" vaporized=""/>
    <tripinfo id="flow_10184.0" depart="4.00" departLane="-667982626_1" departPos="5.10" departSpeed="4.99" departDelay="4.00" arrival="102.00" arrivalLane="-894517879_1" arrivalPos="25.85" arrivalSpeed="10.82" duration="98.00" routeLength="653.32" waitingTime="25.00" waitingCount="1" stopTime="0.00" timeLoss="50.53" rerouteNo="1" devices="tripinfo_flow_10184.0 routing_flow_10184.0" vType="DEFAULT_VEHTYPE" speedFactor="0.95" vaporized=""/>
    <tripinfo id="flow_8759.0" depart="7.00" departLane="361257726_1" departPos="5.10" departSpeed="11.42" departDelay="7.00" arrival="119.00" arrivalLane="894517879_1" arrivalPos="25.85" arrivalSpeed="12.42" duration="112.00" routeLength="855.03" waitingTime="22.00" waitingCount="1" stopTime="0.00" timeLoss="53.74" rerouteNo="1" devices="tripinfo_flow_8759.0 routing_flow_8759.0" vType="DEFAULT_VEHTYPE" speedFactor="0.92" vaporized=""/>
    <tripinfo id="flow_9101.0" depart="2.00" departLane="-140483254#0_1" departPos="5.10" departSpeed="9.52" departDelay="2.00" arrival="122.00" arrivalLane="-140483224#11_1" arrivalPos="2.96" arrivalSpeed="25.22" duration="120.00" routeLength="801.03" waitingTime="47.00" waitingCount="1" stopTime="0.00" timeLoss="77.90" rerouteNo="1" devices="tripinfo_flow_9101.0 routing_flow_9101.0" vType="DEFAULT_VEHTYPE" speedFactor="0.94" vaporized=""/>
    <tripinfo id="flow_6954.0" depart="2.00" departLane="361256298#0_1" departPos="5.10" departSpeed="21.61" departDelay="2.00" arrival="130.00" arrivalLane="-793339796#2_2" arrivalPos="83.13" arrivalSpeed="30.52" duration="128.00" routeLength="1020.40" waitingTime="49.00" waitingCount="3" stopTime="0.00" timeLoss="93.42" rerouteNo="1" devices="tripinfo_flow_6954.0 routing_flow_6954.0" vType="DEFAULT_VEHTYPE" speedFactor="1.11" vaporized=""/>
    <tripinfo id="flow_8132.0" depart="8.00" departLane="123172358_1" departPos="5.10" departSpeed="6.24" departDelay="8.00" arrival="130.00" arrivalLane="-32083693#1_1" arrivalPos="41.12" arrivalSpeed="8.03" duration="122.00" routeLength="564.14" waitingTime="25.00" waitingCount="2" stopTime="0.00" timeLoss="75.94" rerouteNo="1" devices="tripinfo_flow_8132.0 routing_flow_8132.0" vType="DEFAULT_VEHTYPE" speedFactor="0.97" vaporized=""/>
    <tripinfo id="flow_6004.0" depart="2.00" departLane="361256298#1_2" departPos="5.10" departSpeed="12.70" departDelay="2.00" arrival="135.00" arrivalLane="-793339796#1_2" arrivalPos="54.02" arrivalSpeed="30.79" duration="133.00" routeLength="1028.74" waitingTime="50.00" waitingCount="4" stopTime="0.00" timeLoss="99.06" rerouteNo="1" devices="tripinfo_flow_6004.0 routing_flow_6004.0" vType="DEFAULT_VEHTYPE" speedFactor="1.13" vaporized=""/>
    <tripinfo id="flow_9234.0" depart="15.00" departLane="-140483254#0_1" departPos="5.10" departSpeed="3.29" departDelay="15.00" arrival="158.00" arrivalLane="93590608_1" arrivalPos="59.71" arrivalSpeed="16.56" duration="143.00" routeLength="1249.52" waitingTime="40.00" waitingCount="1" stopTime="0.00" timeLoss="90.96" rerouteNo="1" devices="tripinfo_flow_9234.0 routing_flow_9234.0" vType="DEFAULT_VEHTYPE" speedFactor="1.24" vaporized=""/>
    <tripinfo id="flow_2261.0" depart="1.00" departLane="-140483224#12_1" departPos="5.10" departSpeed="21.20" departDelay="1.00" arrival="165.00" arrivalLane="-93590599#0_1" arrivalPos="175.30" arrivalSpeed="7.96" duration="164.00" routeLength="703.86" waitingTime="84.00" waitingCount="3" stopTime="0.00" timeLoss="122.51" rerouteNo="1" devices="tripinfo_flow_2261.0 routing_flow_2261.0" vType="DEFAULT_VEHTYPE" speedFactor="1.07" vaporized=""/>
    <tripinfo id="flow_5586.0" depart="11.00" departLane="-93590611#1_1" departPos="5.10" departSpeed="13.09" departDelay="11.00" arrival="166.00" arrivalLane="-93590599#0_1" arrivalPos="175.30" arrivalSpeed="9.08" duration="155.00" routeLength="834.61" waitingTime="50.00" waitingCount="3" stopTime="0.00" timeLoss="96.01" rerouteNo="1" devices="tripinfo_flow_5586.0 routing_flow_5586.0" vType="DEFAULT_VEHTYPE" speedFactor="1.05" vaporized=""/>
    <tripinfo id="flow_10355.0" depart="2.00" departLane="-140483224#0_2" departPos="5.10" departSpeed="24.32" departDelay="2.00" arrival="168.00" arrivalLane="-93590599#0_1" arrivalPos="175.30" arrivalSpeed="9.55" duration="166.00" routeLength="2846.65" waitingTime="9.00" waitingCount="2" stopTime="0.00" timeLoss="48.09" rerouteNo="1" devices="tripinfo_flow_10355.0 routing_flow_10355.0" vType="DEFAULT_VEHTYPE" speedFactor="1.04" vaporized=""/>
    <tripinfo id="flow_6517.0" depart="23.00" departLane="140483224#8_2" departPos="5.10" departSpeed="0.28" departDelay="23.00" arrival="176.00" arrivalLane="-140483254#0_1" arrivalPos="28.53" arrivalSpeed="11.93" duration="153.00" routeLength="853.75" waitingTime="80.00" waitingCount="2" stopTime="0.00" timeLoss="110.99" rerouteNo="1" devices="tripinfo_flow_6517.0 routing_flow_6517.0" vType="DEFAULT_VEHTYPE" speedFactor="0.95" vaporized=""/>
    <tripinfo id="flow_9709.0" depart="10.00" departLane="-93590599#0_1" departPos="5.10" departSpeed="2.71" departDelay="10.00" arrival="176.00" arrivalLane="894517879_1" arrivalPos="25.85" arrivalSpeed="13.59" duration="166.00" routeLength="499.18" waitingTime="94.00" waitingCount="3" stopTime="0.00" timeLoss="132.14" rerouteNo="1" devices="tripinfo_flow_9709.0 routing_flow_9709.0" vType="DEFAULT_VEHTYPE" speedFactor="1.01" vaporized=""/>
    <tripinfo id="flow_9386.0" depart="35.00" departLane="-140483254#0_1" departPos="5.10" departSpeed="1.19" departDelay="35.00" arrival="181.00" arrivalLane="-93590599#0_1" arrivalPos="175.30" arrivalSpeed="16.17" duration="146.00" routeLength="1437.26" waitingTime="24.00" waitingCount="1" stopTime="0.00" timeLoss="77.82" rerouteNo="1" devices="tripinfo_flow_9386.0 routing_flow_9386.0" vType="DEFAULT_VEHTYPE" speedFactor="1.18" vaporized=""/>
    <tripinfo id="flow_9880.0" depart="16.00" departLane="93590599#0_1" departPos="5.10" departSpeed="10.34" departDelay="16.00" arrival="253.00" arrivalLane="140483224#0_1" arrivalPos="1070.06" arrivalSpeed="28.60" duration="237.00" routeLength="2845.10" waitingTime="59.00" waitingCount="3" stopTime="0.00" timeLoss="115.87" rerouteNo="1" devices="tripinfo_flow_9880.0 routing_flow_9880.0" vType="DEFAULT_VEHTYPE" speedFactor="1.03" vaporized=""/>
    <tripinfo id="flow_114.0" depart="5.00" departLane="140483178#4_0" departPos="5.10" departSpeed="21.19" departDelay="5.00" arrival="330.00" arrivalLane="-140483178#4_0" arrivalPos="81.66" arrivalSpeed="3.77" duration="325.00" routeLength="162.74" waitingTime="299.00" waitingCount="1" stopTime="0.00" timeLoss="316.48" rerouteNo="0" devices="tripinfo_flow_114.0 routing_flow_114.0" vType="DEFAULT_VEHTYPE" speedFactor="1.05" vaporized=""/>
    <tripinfo id="flow_5947.0" depart="3.00" departLane="-114920912_0" departPos="5.10" departSpeed="10.67" departDelay="3.00" arrival="342.00" arrivalLane="-361256298#0_1" arrivalPos="47.11" arrivalSpeed="16.82" duration="339.00" routeLength="166.68" waitingTime="297.00" waitingCount="3" stopTime="0.00" timeLoss="332.12" rerouteNo="1" devices="tripinfo_flow_5947.0 routing_flow_5947.0" vType="DEFAULT_VEHTYPE" speedFactor="1.07" vaporized=""/>
    <tripinfo id="flow_6042.1" depart="277.00" departLane="-361256298#1_1" departPos="5.10" departSpeed="25.50" departDelay="0.08" arrival="348.00" arrivalLane="140483254#0_1" arrivalPos="28.53" arrivalSpeed="8.97" duration="71.00" routeLength="846.95" waitingTime="6.00" waitingCount="1" stopTime="0.00" timeLoss="27.70" rerouteNo="1" devices="tripinfo_flow_6042.1 routing_flow_6042.1" vType="DEFAULT_VEHTYPE" speedFactor="0.92" vaporized=""/>
    <tripinfo id="flow_6802.0" depart="1.00" departLane="361256298#0_2" departPos="5.10" departSpeed="14.91" departDelay="1.00" arrival="349.00" arrivalLane="1120222500_1" arrivalPos="168.84" arrivalSpeed="0.00" duration="348.00" routeLength="257.96" waitingTime="320.00" waitingCount="2" stopTime="0.00" timeLoss="329.61" rerouteNo="1" devices="tripinfo_flow_6802.0 routing_flow_6802.0" vType="DEFAULT_VEHTYPE" speedFactor="1.08" vaporized="teleport"/>
    <tripinfo id="flow_12236.1" depart="258.00" departLane="-361256298#1_1" departPos="5.10" departSpeed="27.40" departDelay="0.86" arrival="352.00" arrivalLane="140483254#0_1" arrivalPos="28.53" arrivalSpeed="12.32" duration="94.00" routeLength="846.95" waitingTime="19.00" waitingCount="1" stopTime="0.00" timeLoss="52.87" rerouteNo="1" devices="tripinfo_flow_12236.1 routing_flow_12236.1" vType="DEFAULT_VEHTYPE" speedFactor="0.99" vaporized=""/>
    <tripinfo id="flow_6688.0" depart="0.00" departLane="-361256298#0_2" departPos="5.10" departSpeed="17.25" departDelay="0.00" arrival="355.00" arrivalLane="361256298#2_1" arrivalPos="64.33" arrivalSpeed="7.60" duration="355.00" routeLength="226.88" waitingTime="302.00" waitingCount="3" stopTime="0.00" timeLoss="345.64" rerouteNo="1" devices="tripinfo_flow_6688.0 routing_flow_6688.0" vType="DEFAULT_VEHTYPE" speedFactor="0.97" vaporized=""/>
    <tripinfo id="flow_1634.0" depart="1.00" departLane="123172358_1" departPos="5.10" departSpeed="10.10" departDelay="1.00" arrival="359.00" arrivalLane="-361256298#1_1" arrivalPos="36.33" arrivalSpeed="16.51" duration="358.00" routeLength="500.32" waitingTime="294.00" waitingCount="4" stopTime="0.00" timeLoss="329.78" rerouteNo="1" devices="tripinfo_flow_1634.0 routing_flow_1634.0" vType="DEFAULT_VEHTYPE" speedFactor="1.00" vaporized=""/>
    <tripinfo id="flow_4446.1" depart="360.00" departLane="114920907#1_1" departPos="5.10" departSpeed="15.01" departDelay="0.00" arrival="373.00" arrivalLane="114920907#1_1" arrivalPos="186.84" arrivalSpeed="14.27" duration="13.00" routeLength="181.74" waitingTime="0.00" waitingCount="0" stopTime="0.00" timeLoss="0.58" rerouteNo="1" devices="tripinfo_flow_4446.1 routing_flow_4446.1" vType="DEFAULT_VEHTYPE" speedFactor="1.08" vaporized=""/>
    <tripinfo id="flow_11989.0" depart="6.00" departLane="-361256298#2_1" departPos="5.10" departSpeed="15.52" departDelay="6.00" arrival="386.00" arrivalLane="361260925#4_1" arrivalPos="36.05" arrivalSpeed="8.47" duration="380.00" routeLength="545.69" waitingTime="292.00" waitingCount="2" stopTime="0.00" timeLoss="331.41" rerouteNo="1" devices="tripinfo_flow_11989.0 routing_flow_11989.0" vType="DEFAULT_VEHTYPE" speedFactor="1.05" vaporized=""/>
    <tripinfo id="flow_8189.0" depart="0.00" departLane="-793339796#1_1" departPos="5.10" departSpeed="23.13" departDelay="0.00" arrival="393.00" arrivalLane="361260925#4_1" arrivalPos="36.05" arrivalSpeed="6.50" duration="393.00" routeLength="726.35" waitingTime="291.00" waitingCount="1" stopTime="0.00" timeLoss="323.75" rerouteNo="1" devices="tripinfo_flow_8189.0 routing_flow_8189.0" vType="DEFAULT_VEHTYPE" speedFactor="0.83" vaporized=""/>
    <tripinfo id="flow_6764.0" depart="0.00" departLane="361256298#0_2" departPos="5.10" departSpeed="17.25" departDelay="0.00" arrival="394.00" arrivalLane="140483249#0_1" arrivalPos="46.30" arrivalSpeed="7.02" duration="394.00" routeLength="464.18" waitingTime="309.00" waitingCount="2" stopTime="0.00" timeLoss="342.65" rerouteNo="1" devices="tripinfo_flow_6764.0 routing_flow_6764.0" vType="DEFAULT_VEHTYPE" speedFactor="0.96" vaporized=""/>
    <tripinfo id="flow_2147.0" depart="3.00" departLane="-140483224#12_2" departPos="5.10" departSpeed="16.20" departDelay="3.00" arrival="414.00" arrivalLane="361256298#0_2" arrivalPos="47.11" arrivalSpeed="0.00" duration="411.00" routeLength="389.76" waitingTime="349.00" waitingCount="5" stopTime="0.00" timeLoss="379.62" rerouteNo="1" devices="tripinfo_flow_2147.0 routing_flow_2147.0" vType="DEFAULT_VEHTYPE" speedFactor="1.01" vaporized="teleport"/>
    <tripinfo id="flow_950.0" depart="0.00" departLane="140483178#5_0" departPos="5.10" departSpeed="19.00" departDelay="0.00" arrival="420.00" arrivalLane="-140483178#4_0" arrivalPos="81.66" arrivalSpeed="0.00" duration="420.00" routeLength="188.93" waitingTime="301.00" waitingCount="1" stopTime="0.00" timeLoss="303.33" rerouteNo="1" devices="tripinfo_flow_950.0 routing_flow_950.0" vType="DEFAULT_VEHTYPE" speedFactor="0.85" vaporized="teleport"/>
    <tripinfo id="flow_5700.0" depart="0.00" departLane="-361256298#1_2" departPos="5.10" departSpeed="14.56" departDelay="0.00" arrival="427.00" arrivalLane="-140483178#4_0" arrivalPos="81.66" arrivalSpeed="0.00" duration="427.00" routeLength="208.17" waitingTime="303.00" waitingCount="2" stopTime="0.00" timeLoss="313.79" rerouteNo="1" devices="tripinfo_flow_5700.0 routing_flow_5700.0" vType="DEFAULT_VEHTYPE" speedFactor="1.07" vaporized="teleport"/>
    <tripinfo id="flow_2090.1" depart="400.00" departLane="-140483224#12_1" departPos="5.10" departSpeed="20.71" departDelay="0.00" arrival="430.00" arrivalLane="-894517879_1" arrivalPos="25.85" arrivalSpeed="12.03" duration="30.00" routeLength="476.56" waitingTime="0.00" waitingCount="0" stopTime="0.00" timeLoss="11.48" rerouteNo="1" devices="tripinfo_flow_2090.1 routing_flow_2090.1" vType="DEFAULT_VEHTYPE" speedFactor="1.05" vaporized=""/>
    <tripinfo id="flow_2413.0" depart="0.00" departLane="-140483211_1" departPos="5.10" departSpeed="6.85" departDelay="0.00" arrival="433.00" arrivalLane="140483178#5_0" arrivalPos="56.00" arrivalSpeed="0.00" duration="433.00" routeLength="237.54" waitingTime="301.00" waitingCount="1" stopTime="0.00" timeLoss="304.43" rerouteNo="1" devices="tripinfo_flow_2413.0 routing_flow_2413.0" vType="DEFAULT_VEHTYPE" speedFactor="0.82" vaporized="teleport"/>
    <tripinfo id="flow_2622.0" depart="10.00" departLane="140483211_1" departPos="5.10" departSpeed="7.39" departDelay="10.00" arrival="443.00" arrivalLane="-361256298#1_1" arrivalPos="36.33" arrivalSpeed="22.37" duration="433.00" routeLength="295.95" waitingTime="301.00" waitingCount="1" stopTime="0.00" timeLoss="305.03" rerouteNo="1" devices="tripinfo_flow_2622.0 routing_flow_2622.0" vType="DEFAULT_VEHTYPE" speedFactor="1.00" vaporized=""/>
    <tripinfo id="flow_5776.0" depart="0.00" departLane="114920912_0" departPos="5.10" departSpeed="18.84" departDelay="0.00" arrival="469.00" arrivalLane="-140483224#11_1" arrivalPos="2.96" arrivalSpeed="11.17" duration="469.00" routeLength="454.31" waitingTime="360.00" waitingCount="4" stopTime="0.00" timeLoss="396.40" rerouteNo="1" devices="tripinfo_flow_5776.0 routing_flow_5776.0" vType="DEFAULT_VEHTYPE" speedFactor="0.98" vaporized=""/>
    <tripinfo id="flow_133.0" depart="0.00" departLane="1120222500_1" departPos="5.10" departSpeed="12.31" departDelay="0.00" arrival="481.00" arrivalLane="-140483178#4_0" arrivalPos="81.66" arrivalSpeed="0.00" duration="481.00" routeLength="326.91" waitingTime="301.00" waitingCount="1" stopTime="0.00" timeLoss="303.70" rerouteNo="1" devices="tripinfo_flow_133.0 routing_flow_133.0" vType="DEFAULT_VEHTYPE" speedFactor="0.89" vaporized="teleport"/>
    <tripinfo id="flow_7011.0" depart="2.00" departLane="361256298#0_2" departPos="5.10" departSpeed="11.90" departDelay="2.00" arrival="490.00" arrivalLane="93590599#0_1" arrivalPos="177.84" arrivalSpeed="13.52" duration="488.00" routeLength="756.21" waitingTime="406.00" waitingCount="4" stopTime="0.00" timeLoss="450.18" rerouteNo="1" devices="tripinfo_flow_7011.0 routing_flow_7011.0" vType="DEFAULT_VEHTYPE" speedFactor="1.02" vaporized=""/>
    <tripinfo id="flow_2717.1" depart="328.00" departLane="-361256298#2_1" departPos="5.10" departSpeed="19.15" departDelay="0.73" arrival="494.00" arrivalLane="140483254#0_1" arrivalPos="28.53" arrivalSpeed="10.08" duration="166.00" routeLength="935.84" waitingTime="74.00" waitingCount="3" stopTime="0.00" timeLoss="109.43" rerouteNo="1" devices="tripinfo_flow_2717.1 routing_flow_2717.1" vType="DEFAULT_VEHTYPE" speedFactor="0.77" vaporized=""/>
    <tripinfo id="flow_8189.1" depart="400.00" departLane="-793339796#1_1" departPos="5.10" departSpeed="22.79" departDelay="0.00" arrival="494.00" arrivalLane="361260925#4_1" arrivalPos="36.05" arrivalSpeed="8.14" duration="94.00" routeLength="805.12" waitingTime="1.00" waitingCount="1" stopTime="0.00" timeLoss="16.80" rerouteNo="1" devices="tripinfo_flow_8189.1 routing_flow_8189.1" vType="DEFAULT_VEHTYPE" speedFactor="1.06" vaporized=""/>
    <tripinfo id="flow_589.0" depart="9.00" departLane="140483178#3_0" departPos="5.10" departSpeed="10.44" departDelay="9.00" arrival="499.00" arrivalLane="-140483178#4_0" arrivalPos="81.66" arrivalSpeed="0.00" duration="490.00" routeLength="252.43" waitingTime="303.00" waitingCount="2" stopTime="0.00" timeLoss="322.56" rerouteNo="1" devices="tripinfo_flow_589.0 routing_flow_589.0" vType="DEFAULT_VEHTYPE" speedFactor="1.15" vaporized="teleport"/>