<?xml version="1.0" encoding="UTF-8"?>

<!-- generated on 2025-12-04 00:02:55 by Eclipse SUMO sumo Version 1.24.0
<sumoConfiguration xmlns:xsi="http://www.w3.org/2001/XMLSchema-instance" xsi:noNamespaceSchemaLocation="http://sumo.dlr.de/xsd/sumoConfiguration.xsd">

    <input>
        <net-file value="Olivarez_traci\network/baseline.net.xml"/>
        <route-files value="Olivarez_traci\demand/flows_slow_traffic.rou.xml"/>
        <additional-files value="Olivarez_traci\additionals/map.poly.xml,Olivarez_traci\ additionals/detectors.add.xml"/>
    </input>

    <output>
        <tripinfo-output value="Olivarez_traci\output_DDPG\SD_DDPG_one_trafficlight_trips.xml"/>
        <statistic-output value="Olivarez_traci\output_DDPG\SD_DDPG_one_trafficlight_stats.xml"/>
    </output>

    <time>
        <begin value="0"/>
        <end value="10800"/>
        <step-length value="0.05"/>
    </time>

    <processing>
        <lateral-resolution value="0.1"/>
        <collision.action value="none"/>
        <collision.check-junctions value="false"/>
        <collision.mingap-factor value="0"/>
    </processing>

    <report>
        <no-warnings value="true"/>
    </report>

    <traci_server>
        <remote-port value="52309"/>
    </traci_server>

    <gui_only>
        <delay value="0"/>
    </gui_only>

</sumoConfiguration>
-->

<tripinfos xmlns:xsi="http://www.w3.org/2001/XMLSchema-instance" xsi:noNamespaceSchemaLocation="http://sumo.dlr.de/xsd/tripinfo_file.xsd">
    <personinfo id="pf_2.0" depart="0.00" type="ped" speedFactor="0.88" duration="28.05" waitingTime="0.00" timeLoss="2.87" traveltime="28.05">
        <walk depart="0.00" departPos="15.09" arrival="28.05" arrivalPos="3.44" duration="28.05" routeLength="30.72" timeLoss="2.87" maxSpeed="1.22" waitingTime="0.00"/>
    </personinfo>
    <personinfo id="pf_2.1" depart="22.50" type="ped" speedFactor="1.08" duration="22.70" waitingTime="0.00" timeLoss="2.17" traveltime="22.70">
        <walk depart="22.50" departPos="15.09" arrival="45.20" arrivalPos="3.44" duration="22.70" routeLength="30.72" timeLoss="2.17" maxSpeed="1.50" waitingTime="0.00"/>
    </personinfo>
    <tripinfo id="D3_1.0" depart="7.65" departLane="140483224#1_2" departPos="5.10" departPosLat="0.00" departSpeed="29.35" departDelay="0.00" arrival="49.70" arrivalLane="-440471861#0_2" arrivalPos="31.52" arrivalPosLat="0.00" arrivalSpeed="29.30" duration="42.05" routeLength="1067.97" waitingTime="0.00" waitingCount="0" stopTime="0.00" timeLoss="4.22" rerouteNo="1" devices="tripinfo_D3_1.0 routing_D3_1.0" vType="car" speedFactor="1.06" vaporized=""/>
    <tripinfo id="A2_1.0" depart="4.45" departLane="-793339796#2_1" departPos="5.10" departPosLat="0.00" departSpeed="28.99" departDelay="0.00" arrival="61.25" arrivalLane="-440471861#0_1" arrivalPos="31.52" arrivalPosLat="0.00" arrivalSpeed="28.94" duration="56.80" routeLength="1081.27" waitingTime="9.00" waitingCount="1" stopTime="0.00" timeLoss="19.49" rerouteNo="1" devices="tripinfo_A2_1.0 routing_A2_1.0" vType="car" speedFactor="1.04" vaporized=""/>
    <tripinfo id="A2_1.1" depart="8.20" departLane="-793339796#2_1" departPos="5.10" departPosLat="0.00" departSpeed="26.62" departDelay="0.00" arrival="62.30" arrivalLane="-440471861#0_2" arrivalPos="31.52" arrivalPosLat="0.00" arrivalSpeed="26.58" duration="54.10" routeLength="1081.27" waitingTime="2.20" waitingCount="1" stopTime="0.00" timeLoss="13.46" rerouteNo="1" devices="tripinfo_A2_1.1 routing_A2_1.1" vType="car" speedFactor="0.96" vaporized=""/>
    <personinfo id="pf_2.2" depart="45.00" type="ped" speedFactor="0.99" duration="24.70" waitingTime="0.00" timeLoss="2.42" traveltime="24.70">
        <walk depart="45.00" departPos="15.09" arrival="69.70" arrivalPos="3.44" duration="24.70" routeLength="30.72" timeLoss="2.42" maxSpeed="1.38" waitingTime="0.00"/>
    </personinfo>
    <tripinfo id="D1_1.0" depart="0.60" departLane="140483224#1_1" departPos="5.10" departPosLat="0.00" departSpeed="27.86" departDelay="0.00" arrival="75.30" arrivalLane="-793339796#2_2" arrivalPos="82.50" arrivalPosLat="0.00" arrivalSpeed="27.86" duration="74.70" routeLength="1648.38" waitingTime="0.00" waitingCount="0" stopTime="0.00" timeLoss="13.21" rerouteNo="1" devices="tripinfo_D1_1.0 routing_D1_1.0" vType="car" speedFactor="1.00" vaporized=""/>
    <personinfo id="pf_2.3" depart="67.50" type="ped" speedFactor="1.13" duration="21.80" waitingTime="0.00" timeLoss="2.17" traveltime="21.80">
        <walk depart="67.50" departPos="15.09" arrival="89.30" arrivalPos="3.44" duration="21.80" routeLength="30.72" timeLoss="2.17" maxSpeed="1.57" waitingTime="0.00"/>
    </personinfo>
    <tripinfo id="A3_1.0" depart="63.55" departLane="-793339796#2_2" departPos="8.10" departPosLat="0.00" departSpeed="27.78" departDelay="0.00" arrival="111.85" arrivalLane="-140483224#1_2" arrivalPos="64.04" arrivalPosLat="0.00" arrivalSpeed="27.76" duration="48.30" routeLength="1077.94" waitingTime="0.00" waitingCount="0" stopTime="0.00" timeLoss="7.96" rerouteNo="1" devices="tripinfo_A3_1.0 routing_A3_1.0" vType="jeep" speedFactor="1.00" vaporized=""/>
    <personinfo id="pf_2.4" depart="90.00" type="ped" speedFactor="1.05" duration="23.20" waitingTime="0.00" timeLoss="2.17" traveltime="23.20">
        <walk depart="90.00" departPos="15.09" arrival="113.20" arrivalPos="3.44" duration="23.20" routeLength="30.72" timeLoss="2.17" maxSpeed="1.46" waitingTime="0.00"/>
    </personinfo>
    <tripinfo id="A2_1.2" depart="76.15" departLane="-793339796#2_1" departPos="8.10" departPosLat="0.00" departSpeed="27.78" departDelay="11.20" arrival="115.00" arrivalLane="-440471861#0_1" arrivalPos="31.52" arrivalPosLat="0.00" arrivalSpeed="27.76" duration="38.85" routeLength="1078.27" waitingTime="0.00" waitingCount="0" stopTime="0.00" timeLoss="0.02" rerouteNo="1" devices="tripinfo_A2_1.2 routing_A2_1.2" vType="jeep" speedFactor="1.00" vaporized=""/>
    <personinfo id="pf_4.0" depart="0.00" type="ped" speedFactor="1.03" duration="115.25" waitingTime="0.00" timeLoss="11.39" traveltime="115.25">
        <walk depart="0.00" departPos="25.00" arrival="55.90" arrivalPos="29.11" duration="55.90" routeLength="72.15" timeLoss="5.39" maxSpeed="1.43" waitingTime="0.00"/>
        <walk depart="55.90" departPos="29.11" arrival="115.25" arrivalPos="29.05" duration="59.35" routeLength="76.20" timeLoss="6.00" maxSpeed="1.43" waitingTime="0.00"/>
    </personinfo>
    <personinfo id="pf_4.1" depart="22.50" type="ped" speedFactor="1.04" duration="113.60" waitingTime="0.00" timeLoss="11.27" traveltime="113.60">
        <walk depart="22.50" departPos="25.00" arrival="77.80" arrivalPos="29.11" duration="55.30" routeLength="72.15" timeLoss="5.53" maxSpeed="1.45" waitingTime="0.00"/>
        <walk depart="77.80" departPos="29.11" arrival="136.10" arrivalPos="29.05" duration="58.30" routeLength="76.20" timeLoss="5.74" maxSpeed="1.45" waitingTime="0.00"/>
    </personinfo>
    <personinfo id="pf_2.5" depart="112.50" type="ped" speedFactor="0.91" duration="26.85" waitingTime="0.00" timeLoss="2.66" traveltime="26.85">
        <walk depart="112.50" departPos="15.09" arrival="139.35" arrivalPos="3.44" duration="26.85" routeLength="30.72" timeLoss="2.66" maxSpeed="1.27" waitingTime="0.00"/>
    </personinfo>
    <personinfo id="pf_4.2" depart="45.00" type="ped" speedFactor="1.08" duration="110.80" waitingTime="1.10" timeLoss="11.91" traveltime="110.80">
        <walk depart="45.00" departPos="25.00" arrival="99.55" arrivalPos="29.11" duration="54.55" routeLength="72.15" timeLoss="6.46" maxSpeed="1.50" waitingTime="1.10"/>
        <walk depart="99.55" departPos="29.11" arrival="155.80" arrivalPos="29.05" duration="56.25" routeLength="76.20" timeLoss="5.46" maxSpeed="1.50" waitingTime="0.00"/>
    </personinfo>
    <personinfo id="pf_2.6" depart="135.00" type="ped" speedFactor="1.00" duration="24.40" waitingTime="0.00" timeLoss="2.38" traveltime="24.40">
        <walk depart="135.00" departPos="15.09" arrival="159.40" arrivalPos="3.44" duration="24.40" routeLength="30.72" timeLoss="2.38" maxSpeed="1.39" waitingTime="0.00"/>
    </personinfo>
    <tripinfo id="B2_1.0" depart="31.00" departLane="-361257727#0_1" departPos="5.10" departPosLat="0.00" departSpeed="8.11" departDelay="0.00" arrival="183.80" arrivalLane="-440471861#0_1" arrivalPos="31.52" arrivalPosLat="0.00" arrivalSpeed="26.99" duration="152.80" routeLength="1397.68" waitingTime="23.20" waitingCount="1" stopTime="0.00" timeLoss="32.47" rerouteNo="1" devices="tripinfo_B2_1.0 routing_B2_1.0" vType="car" speedFactor="0.97" vaporized=""/>
    <tripinfo id="B1_1.0" depart="37.80" departLane="-361257727#0_1" departPos="5.10" departPosLat="0.00" departSpeed="8.63" departDelay="0.00" arrival="184.05" arrivalLane="-793339796#2_2" arrivalPos="82.50" arrivalPosLat="0.00" arrivalSpeed="28.73" duration="146.25" routeLength="1915.44" waitingTime="0.00" waitingCount="0" stopTime="0.00" timeLoss="16.30" rerouteNo="1" devices="tripinfo_B1_1.0 routing_B1_1.0" vType="car" speedFactor="1.04" vaporized=""/>
    <personinfo id="pf_2.7" depart="157.50" type="ped" speedFactor="1.03" duration="27.15" waitingTime="3.30" timeLoss="5.67" traveltime="27.15">
        <walk depart="157.50" departPos="15.09" arrival="184.65" arrivalPos="3.44" duration="27.15" routeLength="30.72" timeLoss="5.67" maxSpeed="1.43" waitingTime="3.30"/>
    </personinfo>
    <personinfo id="pf_4.3" depart="67.50" type="ped" speedFactor="0.99" duration="120.70" waitingTime="1.15" timeLoss="13.13" traveltime="120.70">
        <walk depart="67.50" departPos="25.00" arrival="125.65" arrivalPos="29.11" duration="58.15" routeLength="72.15" timeLoss="5.83" maxSpeed="1.38" waitingTime="0.00"/>
        <walk depart="125.65" departPos="29.11" arrival="188.20" arrivalPos="29.05" duration="62.55" routeLength="76.20" timeLoss="7.29" maxSpeed="1.38" waitingTime="1.15"/>
    </personinfo>
    <tripinfo id="B2_1.1" depart="64.60" departLane="-361257727#0_1" departPos="12.10" departPosLat="0.00" departSpeed="8.33" departDelay="0.00" arrival="191.60" arrivalLane="-440471861#0_1" arrivalPos="31.52" arrivalPosLat="0.00" arrivalSpeed="27.75" duration="127.00" routeLength="1390.68" waitingTime="0.00" waitingCount="0" stopTime="0.00" timeLoss="10.78" rerouteNo="1" devices="tripinfo_B2_1.1 routing_B2_1.1" vType="bus" speedFactor="1.00" vaporized=""/>
    <personinfo id="pf_4.4" depart="90.00" type="ped" speedFactor="0.98" duration="120.70" waitingTime="0.00" timeLoss="11.93" traveltime="120.70">
        <walk depart="90.00" departPos="25.00" arrival="148.80" arrivalPos="29.11" duration="58.80" routeLength="72.15" timeLoss="5.90" maxSpeed="1.36" waitingTime="0.00"/>
        <walk depart="148.80" departPos="29.11" arrival="210.70" arrivalPos="29.05" duration="61.90" routeLength="76.20" timeLoss="6.03" maxSpeed="1.36" waitingTime="0.00"/>
    </personinfo>
    <personinfo id="pf_2.8" depart="180.00" type="ped" speedFactor="0.98" duration="31.70" waitingTime="6.70" timeLoss="9.22" traveltime="31.70">
        <walk depart="180.00" departPos="15.09" arrival="211.70" arrivalPos="3.44" duration="31.70" routeLength="30.72" timeLoss="9.22" maxSpeed="1.37" waitingTime="6.70"/>
    </personinfo>
    <tripinfo id="B2_1.2" depart="75.15" departLane="-361257727#0_1" departPos="7.20" departPosLat="0.00" departSpeed="8.24" departDelay="0.00" arrival="213.65" arrivalLane="-440471861#0_1" arrivalPos="31.52" arrivalPosLat="0.00" arrivalSpeed="27.47" duration="138.50" routeLength="1395.58" waitingTime="2.45" waitingCount="1" stopTime="0.00" timeLoss="20.34" rerouteNo="1" devices="tripinfo_B2_1.2 routing_B2_1.2" vType="truck" speedFactor="0.99" vaporized=""/>
    <personinfo id="pf_4.5" depart="112.50" type="ped" speedFactor="1.08" duration="109.55" waitingTime="0.00" timeLoss="10.99" traveltime="109.55">
        <walk depart="112.50" departPos="25.00" arrival="165.75" arrivalPos="29.11" duration="53.25" routeLength="72.15" timeLoss="5.32" maxSpeed="1.51" waitingTime="0.00"/>
        <walk depart="165.75" departPos="29.11" arrival="222.05" arrivalPos="29.05" duration="56.30" routeLength="76.20" timeLoss="5.67" maxSpeed="1.51" waitingTime="0.00"/>
    </personinfo>
    <personinfo id="pf_2.9" depart="202.50" type="ped" speedFactor="0.94" duration="26.15" waitingTime="0.00" timeLoss="2.62" traveltime="26.15">
        <walk depart="202.50" departPos="15.09" arrival="228.65" arrivalPos="3.44" duration="26.15" routeLength="30.72" timeLoss="2.62" maxSpeed="1.31" waitingTime="0.00"/>
    </personinfo>
    <personinfo id="pf_4.6" depart="135.00" type="ped" speedFactor="1.24" duration="95.35" waitingTime="0.00" timeLoss="9.29" traveltime="95.35">
        <walk depart="135.00" departPos="25.00" arrival="181.40" arrivalPos="29.11" duration="46.40" routeLength="72.15" timeLoss="4.54" maxSpeed="1.72" waitingTime="0.00"/>
        <walk depart="181.40" departPos="29.11" arrival="230.35" arrivalPos="29.05" duration="48.95" routeLength="76.20" timeLoss="4.75" maxSpeed="1.72" waitingTime="0.00"/>
    </personinfo>
    <tripinfo id="A1_1.1" depart="142.90" departLane="-793339796#2_1" departPos="8.10" departPosLat="0.00" departSpeed="19.52" departDelay="17.25" arrival="239.30" arrivalLane="-145894807#0_1" arrivalPos="260.95" arrivalPosLat="0.00" arrivalSpeed="8.33" duration="96.40" routeLength="1053.72" waitingTime="0.00" waitingCount="0" stopTime="0.00" timeLoss="6.97" rerouteNo="1" devices="tripinfo_A1_1.1 routing_A1_1.1" vType="jeep" speedFactor="1.00" vaporized=""/>
    <personinfo id="pf_2.10" depart="225.00" type="ped" speedFactor="1.09" duration="33.55" waitingTime="10.90" timeLoss="13.20" traveltime="33.55">
        <walk depart="225.00" departPos="15.09" arrival="258.55" arrivalPos="3.44" duration="33.55" routeLength="30.72" timeLoss="13.20" maxSpeed="1.51" waitingTime="10.90"/>
    </personinfo>
    <tripinfo id="C3_1.0" depart="11.40" departLane="440471861#0_1" departPos="5.10" departPosLat="0.00" departSpeed="28.45" departDelay="0.00" arrival="261.45" arrivalLane="-140483224#1_1" arrivalPos="64.04" arrivalPosLat="0.00" arrivalSpeed="28.44" duration="250.05" routeLength="1052.78" waitingTime="196.50" waitingCount="2" stopTime="0.00" timeLoss="211.72" rerouteNo="1" devices="tripinfo_C3_1.0 routing_C3_1.0" vType="car" speedFactor="1.02" vaporized=""/>
    <tripinfo id="C3_1.2" depart="78.25" departLane="440471861#0_1" departPos="5.10" departPosLat="0.00" departSpeed="27.91" departDelay="0.00" arrival="263.75" arrivalLane="-140483224#1_1" arrivalPos="64.04" arrivalPosLat="0.00" arrivalSpeed="27.86" duration="185.50" routeLength="1052.78" waitingTime="126.45" waitingCount="1" stopTime="0.00" timeLoss="146.44" rerouteNo="1" devices="tripinfo_C3_1.2 routing_C3_1.2" vType="car" speedFactor="1.00" vaporized=""/>
    <tripinfo id="C3_1.1" depart="43.55" departLane="440471861#0_1" departPos="7.20" departPosLat="0.00" departSpeed="26.91" departDelay="0.00" arrival="265.55" arrivalLane="-140483224#1_2" arrivalPos="64.04" arrivalPosLat="0.00" arrivalSpeed="26.91" duration="222.00" routeLength="1050.68" waitingTime="159.15" waitingCount="1" stopTime="0.00" timeLoss="181.56" rerouteNo="1" devices="tripinfo_C3_1.1 routing_C3_1.1" vType="truck" speedFactor="0.97" vaporized=""/>
    <tripinfo id="C3_1.5" depart="180.75" departLane="440471861#0_1" departPos="5.10" departPosLat="0.00" departSpeed="29.50" departDelay="0.00" arrival="267.70" arrivalLane="-140483224#1_2" arrivalPos="64.04" arrivalPosLat="0.00" arrivalSpeed="29.49" duration="86.95" routeLength="1052.78" waitingTime="26.80" waitingCount="1" stopTime="0.00" timeLoss="49.97" rerouteNo="1" devices="tripinfo_C3_1.5 routing_C3_1.5" vType="car" speedFactor="1.06" vaporized=""/>
    <tripinfo id="C3_1.3" depart="104.00" departLane="440471861#0_1" departPos="8.10" departPosLat="0.00" departSpeed="27.78" departDelay="0.00" arrival="268.70" arrivalLane="-140483224#1_1" arrivalPos="64.04" arrivalPosLat="0.00" arrivalSpeed="27.78" duration="164.70" routeLength="1049.78" waitingTime="101.25" waitingCount="1" stopTime="0.00" timeLoss="125.54" rerouteNo="1" devices="tripinfo_C3_1.3 routing_C3_1.3" vType="jeep" speedFactor="1.00" vaporized=""/>
    <personinfo id="pf_4.7" depart="157.50" type="ped" speedFactor="1.06" duration="111.90" waitingTime="0.00" timeLoss="11.21" traveltime="111.90">
        <walk depart="157.50" departPos="25.00" arrival="211.95" arrivalPos="29.11" duration="54.45" routeLength="72.15" timeLoss="5.48" maxSpeed="1.47" waitingTime="0.00"/>
        <walk depart="211.95" departPos="29.11" arrival="269.40" arrivalPos="29.05" duration="57.45" routeLength="76.20" timeLoss="5.73" maxSpeed="1.47" waitingTime="0.00"/>
    </personinfo>
    <tripinfo id="C3_1.4" depart="161.95" departLane="440471861#0_1" departPos="5.10" departPosLat="0.00" departSpeed="27.30" departDelay="0.00" arrival="270.00" arrivalLane="-140483224#1_1" arrivalPos="64.04" arrivalPosLat="0.00" arrivalSpeed="27.28" duration="108.05" routeLength="1052.78" waitingTime="48.65" waitingCount="1" stopTime="0.00" timeLoss="68.09" rerouteNo="1" devices="tripinfo_C3_1.4 routing_C3_1.4" vType="car" speedFactor="0.98" vaporized=""/>
    <personinfo id="pf_2.11" depart="247.50" type="ped" speedFactor="0.90" duration="27.40" waitingTime="0.00" timeLoss="2.72" traveltime="27.40">
        <walk depart="247.50" departPos="15.09" arrival="274.90" arrivalPos="3.44" duration="27.40" routeLength="30.72" timeLoss="2.72" maxSpeed="1.24" waitingTime="0.00"/>
    </personinfo>
    <tripinfo id="C1_1.2" depart="41.05" departLane="440471861#0_1" departPos="5.10" departPosLat="0.00" departSpeed="30.59" departDelay="0.00" arrival="288.35" arrivalLane="-793339796#2_2" arrivalPos="82.50" arrivalPosLat="0.00" arrivalSpeed="30.54" duration="247.30" routeLength="1653.99" waitingTime="163.20" waitingCount="1" stopTime="0.00" timeLoss="192.21" rerouteNo="1" devices="tripinfo_C1_1.2 routing_C1_1.2" vType="car" speedFactor="1.10" vaporized=""/>
    <tripinfo id="C1_1.1" depart="31.85" departLane="440471861#0_1" departPos="5.10" departPosLat="0.00" departSpeed="25.38" departDelay="0.00" arrival="293.55" arrivalLane="-793339796#2_2" arrivalPos="82.50" arrivalPosLat="0.00" arrivalSpeed="25.33" duration="261.70" routeLength="1653.99" waitingTime="169.25" waitingCount="1" stopTime="0.00" timeLoss="195.29" rerouteNo="1" devices="tripinfo_C1_1.1 routing_C1_1.1" vType="car" speedFactor="0.91" vaporized=""/>
    <personinfo id="pf_4.8" depart="180.00" type="ped" speedFactor="1.09" duration="115.70" waitingTime="6.60" timeLoss="17.48" traveltime="115.70">
        <walk depart="180.00" departPos="25.00" arrival="232.95" arrivalPos="29.11" duration="52.95" routeLength="72.15" timeLoss="5.18" maxSpeed="1.51" waitingTime="0.00"/>
        <walk depart="232.95" departPos="29.11" arrival="295.70" arrivalPos="29.05" duration="62.75" routeLength="76.20" timeLoss="12.30" maxSpeed="1.51" waitingTime="6.60"/>
    </personinfo>
    <personinfo id="pf_2.12" depart="270.00" type="ped" speedFactor="0.89" duration="27.40" waitingTime="0.00" timeLoss="2.63" traveltime="27.40">
        <walk depart="270.00" departPos="15.09" arrival="297.40" arrivalPos="3.44" duration="27.40" routeLength="30.72" timeLoss="2.63" maxSpeed="1.24" waitingTime="0.00"/>
    </personinfo>
    <tripinfo id="C1_1.0" depart="17.65" departLane="440471861#0_1" departPos="8.10" departPosLat="0.00" departSpeed="27.78" departDelay="0.00" arrival="302.65" arrivalLane="-793339796#2_2" arrivalPos="82.50" arrivalPosLat="0.00" arrivalSpeed="24.36" duration="285.00" routeLength="1650.99" waitingTime="187.65" waitingCount="1" stopTime="0.00" timeLoss="224.46" rerouteNo="1" devices="tripinfo_C1_1.0 routing_C1_1.0" vType="jeep" speedFactor="1.00" vaporized=""/>
    <tripinfo id="C1_1.3" depart="71.00" departLane="440471861#0_1" departPos="5.10" departPosLat="0.00" departSpeed="29.37" departDelay="0.00" arrival="303.90" arrivalLane="-793339796#2_2" arrivalPos="82.50" arrivalPosLat="0.00" arrivalSpeed="25.98" duration="232.90" routeLength="1653.99" waitingTime="132.80" waitingCount="1" stopTime="0.00" timeLoss="175.52" rerouteNo="1" devices="tripinfo_C1_1.3 routing_C1_1.3" vType="car" speedFactor="1.06" vaporized=""/>
    <tripinfo id="C1_1.4" depart="147.20" departLane="440471861#0_1" departPos="5.10" departPosLat="0.00" departSpeed="26.58" departDelay="0.00" arrival="304.80" arrivalLane="-793339796#2_1" arrivalPos="82.50" arrivalPosLat="-0.00" arrivalSpeed="26.55" duration="157.60" routeLength="1653.99" waitingTime="55.95" waitingCount="1" stopTime="0.00" timeLoss="94.22" rerouteNo="1" devices="tripinfo_C1_1.4 routing_C1_1.4" vType="car" speedFactor="0.96" vaporized=""/>
    <tripinfo id="C1_1.5" depart="231.00" departLane="440471861#0_1" departPos="2.30" departPosLat="0.00" departSpeed="30.32" departDelay="0.00" arrival="304.95" arrivalLane="-793339796#2_2" arrivalPos="82.50" arrivalPosLat="0.00" arrivalSpeed="29.61" duration="73.95" routeLength="1656.79" waitingTime="0.00" waitingCount="0" stopTime="0.00" timeLoss="18.23" rerouteNo="1" devices="tripinfo_C1_1.5 routing_C1_1.5" vType="motorcycle" speedFactor="1.09" vaporized=""/>
    <tripinfo id="C2_1.0" depart="20.15" departLane="440471861#0_2" departPos="2.30" departPosLat="0.00" departSpeed="25.10" departDelay="0.00" arrival="309.25" arrivalLane="-145894807#0_1" arrivalPos="260.95" arrivalPosLat="0.00" arrivalSpeed="7.50" duration="289.10" routeLength="1084.86" waitingTime="182.35" waitingCount="1" stopTime="0.00" timeLoss="194.63" rerouteNo="1" devices="tripinfo_C2_1.0 routing_C2_1.0" vType="motorcycle" speedFactor="0.90" vaporized=""/>
    <tripinfo id="C2_1.1" depart="161.10" departLane="440471861#0_2" departPos="8.10" departPosLat="0.00" departSpeed="27.78" departDelay="0.00" arrival="311.25" arrivalLane="-145894807#0_1" arrivalPos="260.95" arrivalPosLat="0.00" arrivalSpeed="8.31" duration="150.15" routeLength="1079.06" waitingTime="43.75" waitingCount="1" stopTime="0.00" timeLoss="65.01" rerouteNo="1" devices="tripinfo_C2_1.1 routing_C2_1.1" vType="jeep" speedFactor="1.00" vaporized=""/>
    <tripinfo id="B1_1.1" depart="171.30" departLane="-361257727#0_1" departPos="5.10" departPosLat="0.00" departSpeed="9.06" departDelay="0.00" arrival="312.00" arrivalLane="-793339796#2_2" arrivalPos="82.50" arrivalPosLat="0.00" arrivalSpeed="30.20" duration="140.70" routeLength="1915.44" waitingTime="0.00" waitingCount="0" stopTime="0.00" timeLoss="16.89" rerouteNo="1" devices="tripinfo_B1_1.1 routing_B1_1.1" vType="car" speedFactor="1.09" vaporized=""/>
    <tripinfo id="C2_1.2" depart="210.30" departLane="440471861#0_2" departPos="2.30" departPosLat="0.00" departSpeed="29.34" departDelay="0.00" arrival="313.40" arrivalLane="-145894807#0_1" arrivalPos="260.95" arrivalPosLat="0.00" arrivalSpeed="8.76" duration="103.10" routeLength="1084.86" waitingTime="0.00" waitingCount="0" stopTime="0.00" timeLoss="22.25" rerouteNo="1" devices="tripinfo_C2_1.2 routing_C2_1.2" vType="tricycle" speedFactor="1.06" vaporized=""/>
    <personinfo id="pf_2.13" depart="292.50" type="ped" speedFactor="1.14" duration="21.50" waitingTime="0.00" timeLoss="2.13" traveltime="21.50">
        <walk depart="292.50" departPos="15.09" arrival="314.00" arrivalPos="3.44" duration="21.50" routeLength="30.72" timeLoss="2.13" maxSpeed="1.59" waitingTime="0.00"/>
    </personinfo>
    <tripinfo id="C3_1.6" depart="228.05" departLane="440471861#0_1" departPos="8.10" departPosLat="0.00" departSpeed="27.78" departDelay="0.00" arrival="315.95" arrivalLane="-140483224#1_1" arrivalPos="64.04" arrivalPosLat="0.00" arrivalSpeed="27.76" duration="87.90" routeLength="1049.78" waitingTime="28.05" waitingCount="1" stopTime="0.00" timeLoss="48.76" rerouteNo="1" devices="tripinfo_C3_1.6 routing_C3_1.6" vType="jeep" speedFactor="1.00" vaporized=""/>
    <tripinfo id="A1_1.3" depart="222.65" departLane="-793339796#2_1" departPos="5.10" departPosLat="0.00" departSpeed="26.77" departDelay="0.00" arrival="321.40" arrivalLane="-145894807#0_1" arrivalPos="260.95" arrivalPosLat="0.00" arrivalSpeed="8.01" duration="98.75" routeLength="1056.72" waitingTime="0.40" waitingCount="1" stopTime="0.00" timeLoss="5.89" rerouteNo="1" devices="tripinfo_A1_1.3 routing_A1_1.3" vType="car" speedFactor="0.96" vaporized=""/>
    <tripinfo id="C1_1.6" depart="243.60" departLane="440471861#0_1" departPos="2.30" departPosLat="0.00" departSpeed="32.04" departDelay="0.00" arrival="322.35" arrivalLane="-793339796#2_2" arrivalPos="82.50" arrivalPosLat="0.00" arrivalSpeed="31.49" duration="78.75" routeLength="1656.79" waitingTime="4.70" waitingCount="1" stopTime="0.00" timeLoss="26.08" rerouteNo="1" devices="tripinfo_C1_1.6 routing_C1_1.6" vType="tricycle" speedFactor="1.15" vaporized=""/>
    <tripinfo id="C1_1.7" depart="251.65" departLane="440471861#0_1" departPos="2.30" departPosLat="0.00" departSpeed="30.04" departDelay="0.00" arrival="326.00" arrivalLane="-793339796#2_2" arrivalPos="82.50" arrivalPosLat="0.00" arrivalSpeed="27.97" duration="74.35" routeLength="1656.79" waitingTime="0.00" waitingCount="0" stopTime="0.00" timeLoss="18.21" rerouteNo="1" devices="tripinfo_C1_1.7 routing_C1_1.7" vType="tricycle" speedFactor="1.08" vaporized=""/>
    <personinfo id="pf_4.9" depart="202.50" type="ped" speedFactor="0.94" duration="128.15" waitingTime="2.45" timeLoss="14.99" traveltime="128.15">
        <walk depart="202.50" departPos="25.00" arrival="263.60" arrivalPos="29.11" duration="61.10" routeLength="72.15" timeLoss="6.07" maxSpeed="1.31" waitingTime="0.05"/>
        <walk depart="263.60" departPos="29.11" arrival="330.65" arrivalPos="29.05" duration="67.05" routeLength="76.20" timeLoss="8.93" maxSpeed="1.31" waitingTime="2.40"/>
    </personinfo>
    <personinfo id="pf_3.0" depart="0.00" type="ped" speedFactor="1.16" duration="331.70" waitingTime="4.65" timeLoss="39.67" traveltime="331.70">
        <walk depart="0.00" departPos="25.00" arrival="96.25" arrivalPos="19.11" duration="96.25" routeLength="132.56" timeLoss="13.73" maxSpeed="1.61" waitingTime="4.65"/>
        <walk depart="96.25" departPos="19.11" arrival="331.70" arrivalPos="22.72" duration="235.45" routeLength="336.55" timeLoss="25.94" maxSpeed="1.61" waitingTime="0.00"/>
    </personinfo>
    <personinfo id="pf_4.10" depart="225.00" type="ped" speedFactor="1.08" duration="109.45" waitingTime="0.00" timeLoss="10.80" traveltime="109.45">
        <walk depart="225.00" departPos="25.00" arrival="278.30" arrivalPos="29.11" duration="53.30" routeLength="72.15" timeLoss="5.32" maxSpeed="1.50" waitingTime="0.00"/>
        <walk depart="278.30" departPos="29.11" arrival="334.45" arrivalPos="29.05" duration="56.15" routeLength="76.20" timeLoss="5.48" maxSpeed="1.50" waitingTime="0.00"/>
    </personinfo>
    <tripinfo id="D3_1.1" depart="100.85" departLane="140483224#1_2" departPos="5.10" departPosLat="0.00" departSpeed="24.64" departDelay="0.00" arrival="342.45" arrivalLane="-440471861#0_2" arrivalPos="31.52" arrivalPosLat="0.00" arrivalSpeed="24.59" duration="241.60" routeLength="1067.97" waitingTime="188.40" waitingCount="1" stopTime="0.00" timeLoss="196.53" rerouteNo="1" devices="tripinfo_D3_1.1 routing_D3_1.1" vType="car" speedFactor="0.89" vaporized=""/>
    <tripinfo id="D3_1.2" depart="106.35" departLane="140483224#1_2" departPos="8.10" departPosLat="0.00" departSpeed="27.78" departDelay="0.00" arrival="349.40" arrivalLane="-440471861#0_2" arrivalPos="31.52" arrivalPosLat="0.00" arrivalSpeed="27.77" duration="243.05" routeLength="1064.97" waitingTime="185.45" waitingCount="1" stopTime="0.00" timeLoss="203.19" rerouteNo="1" devices="tripinfo_D3_1.2 routing_D3_1.2" vType="jeep" speedFactor="1.00" vaporized=""/>
    <tripinfo id="D3_1.3" depart="208.30" departLane="140483224#1_1" departPos="7.20" departPosLat="0.00" departSpeed="30.27" departDelay="0.00" arrival="350.70" arrivalLane="-440471861#0_2" arrivalPos="31.52" arrivalPosLat="0.00" arrivalSpeed="28.66" duration="142.40" routeLength="1065.87" waitingTime="85.85" waitingCount="1" stopTime="0.00" timeLoss="105.77" rerouteNo="1" devices="tripinfo_D3_1.3 routing_D3_1.3" vType="truck" speedFactor="1.09" vaporized=""/>
    <tripinfo id="D3_1.4" depart="241.40" departLane="140483224#1_2" departPos="5.10" departPosLat="0.00" departSpeed="31.59" departDelay="0.00" arrival="351.90" arrivalLane="-440471861#0_2" arrivalPos="31.52" arrivalPosLat="0.00" arrivalSpeed="30.34" duration="110.50" routeLength="1067.97" waitingTime="50.35" waitingCount="1" stopTime="0.00" timeLoss="75.31" rerouteNo="1" devices="tripinfo_D3_1.4 routing_D3_1.4" vType="car" speedFactor="1.14" vaporized=""/>
    <personinfo id="pf_2.14" depart="315.00" type="ped" speedFactor="0.96" duration="37.30" waitingTime="11.80" timeLoss="14.16" traveltime="37.30">
        <walk depart="315.00" departPos="15.09" arrival="352.30" arrivalPos="3.44" duration="37.30" routeLength="30.72" timeLoss="14.16" maxSpeed="1.33" waitingTime="11.80"/>
    </personinfo>
    <tripinfo id="C1_1.9" depart="288.55" departLane="440471861#0_2" departPos="5.10" departPosLat="0.00" departSpeed="31.96" departDelay="0.00" arrival="352.90" arrivalLane="-793339796#2_2" arrivalPos="82.50" arrivalPosLat="0.00" arrivalSpeed="31.96" duration="64.35" routeLength="1653.99" waitingTime="0.00" waitingCount="0" stopTime="0.00" timeLoss="11.62" rerouteNo="1" devices="tripinfo_C1_1.9 routing_C1_1.9" vType="car" speedFactor="1.15" vaporized=""/>
    <tripinfo id="D3_1.5" depart="274.40" departLane="140483224#1_1" departPos="2.30" departPosLat="0.00" departSpeed="25.76" departDelay="0.00" arrival="353.45" arrivalLane="-440471861#0_2" arrivalPos="31.52" arrivalPosLat="0.00" arrivalSpeed="25.74" duration="79.05" routeLength="1070.77" waitingTime="16.90" waitingCount="1" stopTime="0.00" timeLoss="35.84" rerouteNo="1" devices="tripinfo_D3_1.5 routing_D3_1.5" vType="motorcycle" speedFactor="0.93" vaporized=""/>