<?xml version="1.0" encoding="UTF-8"?>

<!-- generated on 2025-12-04 00:15:19 by Eclipse SUMO sumo Version 1.24.0
<sumoConfiguration xmlns:xsi="http://www.w3.org/2001/XMLSchema-instance" xsi:noNamespaceSchemaLocation="http://sumo.dlr.de/xsd/sumoConfiguration.xsd">

    <input>
        <net-file value="Olivarez_traci\network/baseline.net.xml"/>
        <route-files value="Olivarez_traci\demand/flows_normal_traffic.rou.xml"/>
        <additional-files value="Olivarez_traci\additionals/map.poly.xml,Olivarez_traci\ additionals/detectors.add.xml"/>
    </input>

    <output>
        <tripinfo-output value="Olivarez_traci\output_DDPG\SD_DDPG_one_trafficlight_trips.xml"/>
        <statistic-output value="Olivarez_traci\output_DDPG\SD_DDPG_one_trafficlight_stats.xml"/>
    </output>

    <time>
        <begin value="0"/>
        <end value="10800"/>
        <step-length value="0.05"/>
    </time>

    <processing>
        <lateral-resolution value="0.1"/>
        <collision.action value="none"/>
        <collision.check-junctions value="false"/>
        <collision.mingap-factor value="0"/>
    </processing>

    <report>
        <no-warnings value="true"/>
    </report>

    <traci_server>
        <remote-port value="56261"/>
    </traci_server>

    <gui_only>
        <delay value="0"/>
    </gui_only>

</sumoConfiguration>
-->

<tripinfos xmlns:xsi="http://www.w3.org/2001/XMLSchema-instance" xsi:noNamespaceSchemaLocation="http://sumo.dlr.de/xsd/tripinfo_file.xsd">
    <personinfo id="pf_2.0" depart="0.00" type="ped" speedFactor="1.03" duration="23.90" waitingTime="0.00" timeLoss="2.52" traveltime="23.90">
        <walk depart="0.00" departPos="15.09" arrival="23.90" arrivalPos="3.44" duration="23.90" routeLength="30.72" timeLoss="2.52" maxSpeed="1.44" waitingTime="0.00"/>
    </personinfo>
    <tripinfo id="D3_1.0" depart="7.65" departLane="140483224#1_2" departPos="5.10" departPosLat="0.00" departSpeed="27.91" departDelay="0.00" arrival="51.45" arrivalLane="-440471861#0_2" arrivalPos="31.52" arrivalPosLat="0.00" arrivalSpeed="27.86" duration="43.80" routeLength="1067.97" waitingTime="0.00" waitingCount="0" stopTime="0.00" timeLoss="4.00" rerouteNo="1" devices="tripinfo_D3_1.0 routing_D3_1.0" vType="car" speedFactor="1.00" vaporized=""/>
    <tripinfo id="A2_1.0" depart="4.45" departLane="-793339796#2_1" departPos="2.30" departPosLat="0.00" departSpeed="27.90" departDelay="0.00" arrival="57.70" arrivalLane="-440471861#0_1" arrivalPos="31.52" arrivalPosLat="0.00" arrivalSpeed="27.85" duration="53.25" routeLength="1084.07" waitingTime="9.95" waitingCount="1" stopTime="0.00" timeLoss="14.37" rerouteNo="1" devices="tripinfo_A2_1.0 routing_A2_1.0" vType="motorcycle" speedFactor="1.00" vaporized=""/>
    <personinfo id="pf_2.1" depart="45.00" type="ped" speedFactor="1.00" duration="24.45" waitingTime="0.00" timeLoss="2.29" traveltime="24.45">
        <walk depart="45.00" departPos="15.09" arrival="69.45" arrivalPos="3.44" duration="24.45" routeLength="30.72" timeLoss="2.29" maxSpeed="1.39" waitingTime="0.00"/>
    </personinfo>
    <tripinfo id="D1_1.0" depart="0.60" departLane="140483224#1_1" departPos="5.10" departPosLat="0.00" departSpeed="23.74" departDelay="0.00" arrival="84.15" arrivalLane="-793339796#2_2" arrivalPos="82.50" arrivalPosLat="0.00" arrivalSpeed="23.72" duration="83.55" routeLength="1648.38" waitingTime="0.00" waitingCount="0" stopTime="0.00" timeLoss="11.31" rerouteNo="1" devices="tripinfo_D1_1.0 routing_D1_1.0" vType="car" speedFactor="0.85" vaporized=""/>
    <personinfo id="pf_2.2" depart="90.00" type="ped" speedFactor="1.02" duration="24.25" waitingTime="0.00" timeLoss="2.50" traveltime="24.25">
        <walk depart="90.00" departPos="15.09" arrival="114.25" arrivalPos="3.44" duration="24.25" routeLength="30.72" timeLoss="2.50" maxSpeed="1.41" waitingTime="0.00"/>
    </personinfo>
    <personinfo id="pf_4.0" depart="0.00" type="ped" speedFactor="0.95" duration="124.65" waitingTime="0.00" timeLoss="12.35" traveltime="124.65">
        <walk depart="0.00" departPos="25.00" arrival="60.55" arrivalPos="29.11" duration="60.55" routeLength="72.15" timeLoss="5.93" maxSpeed="1.32" waitingTime="0.00"/>
        <walk depart="60.55" departPos="29.11" arrival="124.65" arrivalPos="29.05" duration="64.10" routeLength="76.20" timeLoss="6.42" maxSpeed="1.32" waitingTime="0.00"/>
    </personinfo>
    <tripinfo id="A3_1.0" depart="107.30" departLane="-793339796#2_2" departPos="5.10" departPosLat="0.00" departSpeed="26.79" departDelay="0.00" arrival="153.10" arrivalLane="-140483224#1_2" arrivalPos="64.04" arrivalPosLat="0.00" arrivalSpeed="26.76" duration="45.80" routeLength="1080.94" waitingTime="0.00" waitingCount="0" stopTime="0.00" timeLoss="3.92" rerouteNo="1" devices="tripinfo_A3_1.0 routing_A3_1.0" vType="car" speedFactor="0.96" vaporized=""/>
    <personinfo id="pf_2.3" depart="135.00" type="ped" speedFactor="0.97" duration="25.35" waitingTime="0.00" timeLoss="2.48" traveltime="25.35">
        <walk depart="135.00" departPos="15.09" arrival="160.35" arrivalPos="3.44" duration="25.35" routeLength="30.72" timeLoss="2.48" maxSpeed="1.34" waitingTime="0.00"/>
    </personinfo>
    <personinfo id="pf_4.1" depart="45.00" type="ped" speedFactor="1.01" duration="117.15" waitingTime="0.00" timeLoss="11.70" traveltime="117.15">
        <walk depart="45.00" departPos="25.00" arrival="102.00" arrivalPos="29.11" duration="57.00" routeLength="72.15" timeLoss="5.71" maxSpeed="1.41" waitingTime="0.00"/>
        <walk depart="102.00" departPos="29.11" arrival="162.15" arrivalPos="29.05" duration="60.15" routeLength="76.20" timeLoss="5.99" maxSpeed="1.41" waitingTime="0.00"/>
    </personinfo>
    <tripinfo id="B2_1.0" depart="64.60" departLane="-361257727#0_1" departPos="8.10" departPosLat="0.00" departSpeed="8.33" departDelay="0.00" arrival="192.15" arrivalLane="-440471861#0_1" arrivalPos="31.52" arrivalPosLat="0.00" arrivalSpeed="27.78" duration="127.55" routeLength="1394.68" waitingTime="0.00" waitingCount="0" stopTime="0.00" timeLoss="10.87" rerouteNo="1" devices="tripinfo_B2_1.0 routing_B2_1.0" vType="jeep" speedFactor="1.00" vaporized=""/>
    <personinfo id="pf_2.4" depart="180.00" type="ped" speedFactor="1.15" duration="21.35" waitingTime="0.00" timeLoss="2.08" traveltime="21.35">
        <walk depart="180.00" departPos="15.09" arrival="201.35" arrivalPos="3.44" duration="21.35" routeLength="30.72" timeLoss="2.08" maxSpeed="1.59" waitingTime="0.00"/>
    </personinfo>
    <tripinfo id="B2_1.1" depart="75.15" departLane="-361257727#0_1" departPos="5.10" departPosLat="0.00" departSpeed="8.25" departDelay="0.00" arrival="206.45" arrivalLane="-440471861#0_1" arrivalPos="31.52" arrivalPosLat="0.00" arrivalSpeed="27.51" duration="131.30" routeLength="1397.68" waitingTime="3.80" waitingCount="1" stopTime="0.00" timeLoss="13.11" rerouteNo="1" devices="tripinfo_B2_1.1 routing_B2_1.1" vType="car" speedFactor="0.99" vaporized=""/>
    <personinfo id="pf_4.2" depart="90.00" type="ped" speedFactor="0.97" duration="122.35" waitingTime="0.00" timeLoss="12.23" traveltime="122.35">
        <walk depart="90.00" departPos="25.00" arrival="149.50" arrivalPos="29.11" duration="59.50" routeLength="72.15" timeLoss="5.94" maxSpeed="1.35" waitingTime="0.00"/>
        <walk depart="149.50" departPos="29.11" arrival="212.35" arrivalPos="29.05" duration="62.85" routeLength="76.20" timeLoss="6.28" maxSpeed="1.35" waitingTime="0.00"/>
    </personinfo>
    <personinfo id="pf_4.3" depart="135.00" type="ped" speedFactor="0.99" duration="119.80" waitingTime="0.00" timeLoss="11.88" traveltime="119.80">
        <walk depart="135.00" departPos="25.00" arrival="193.35" arrivalPos="29.11" duration="58.35" routeLength="72.15" timeLoss="5.86" maxSpeed="1.37" waitingTime="0.00"/>
        <walk depart="193.35" departPos="29.11" arrival="254.80" arrivalPos="29.05" duration="61.45" routeLength="76.20" timeLoss="6.02" maxSpeed="1.37" waitingTime="0.00"/>
    </personinfo>
    <personinfo id="pf_2.5" depart="225.00" type="ped" speedFactor="0.98" duration="33.65" waitingTime="8.45" timeLoss="10.98" traveltime="33.65">
        <walk depart="225.00" departPos="15.09" arrival="258.65" arrivalPos="3.44" duration="33.65" routeLength="30.72" timeLoss="10.98" maxSpeed="1.36" waitingTime="8.45"/>
    </personinfo>
    <tripinfo id="C3_1.0" depart="43.55" departLane="440471861#0_1" departPos="2.30" departPosLat="0.00" departSpeed="27.09" departDelay="0.00" arrival="262.05" arrivalLane="-140483224#1_2" arrivalPos="64.04" arrivalPosLat="0.00" arrivalSpeed="27.05" duration="218.50" routeLength="1055.58" waitingTime="159.85" waitingCount="1" stopTime="0.00" timeLoss="178.12" rerouteNo="1" devices="tripinfo_C3_1.0 routing_C3_1.0" vType="tricycle" speedFactor="0.98" vaporized=""/>
    <tripinfo id="C3_1.2" depart="161.95" departLane="440471861#0_1" departPos="5.10" departPosLat="0.00" departSpeed="26.39" departDelay="0.00" arrival="265.50" arrivalLane="-140483224#1_2" arrivalPos="64.04" arrivalPosLat="0.00" arrivalSpeed="26.37" duration="103.55" routeLength="1052.78" waitingTime="42.40" waitingCount="1" stopTime="0.00" timeLoss="62.21" rerouteNo="1" devices="tripinfo_C3_1.2 routing_C3_1.2" vType="car" speedFactor="0.95" vaporized=""/>
    <tripinfo id="C3_1.1" depart="78.25" departLane="440471861#0_1" departPos="8.10" departPosLat="0.00" departSpeed="27.78" departDelay="0.00" arrival="266.45" arrivalLane="-140483224#1_1" arrivalPos="64.04" arrivalPosLat="0.00" arrivalSpeed="27.77" duration="188.20" routeLength="1049.78" waitingTime="125.70" waitingCount="1" stopTime="0.00" timeLoss="149.04" rerouteNo="1" devices="tripinfo_C3_1.1 routing_C3_1.1" vType="jeep" speedFactor="1.00" vaporized=""/>
    <tripinfo id="C3_1.3" depart="180.75" departLane="440471861#0_1" departPos="8.10" departPosLat="0.00" departSpeed="27.78" departDelay="0.00" arrival="270.55" arrivalLane="-140483224#1_1" arrivalPos="64.04" arrivalPosLat="0.00" arrivalSpeed="27.77" duration="89.80" routeLength="1049.78" waitingTime="25.10" waitingCount="1" stopTime="0.00" timeLoss="50.65" rerouteNo="1" devices="tripinfo_C3_1.3 routing_C3_1.3" vType="jeep" speedFactor="1.00" vaporized=""/>
    <personinfo id="pf_2.6" depart="270.00" type="ped" speedFactor="1.00" duration="24.45" waitingTime="0.00" timeLoss="2.37" traveltime="24.45">
        <walk depart="270.00" departPos="15.09" arrival="294.45" arrivalPos="3.44" duration="24.45" routeLength="30.72" timeLoss="2.37" maxSpeed="1.39" waitingTime="0.00"/>
    </personinfo>
    <personinfo id="pf_4.4" depart="180.00" type="ped" speedFactor="1.02" duration="116.40" waitingTime="0.50" timeLoss="12.09" traveltime="116.40">
        <walk depart="180.00" departPos="25.00" arrival="236.35" arrivalPos="29.11" duration="56.35" routeLength="72.15" timeLoss="5.62" maxSpeed="1.42" waitingTime="0.00"/>
        <walk depart="236.35" departPos="29.11" arrival="296.40" arrivalPos="29.05" duration="60.05" routeLength="76.20" timeLoss="6.47" maxSpeed="1.42" waitingTime="0.50"/>
    </personinfo>
    <tripinfo id="C1_1.0" depart="31.85" departLane="440471861#0_1" departPos="8.10" departPosLat="0.00" departSpeed="27.78" departDelay="0.00" arrival="299.15" arrivalLane="-793339796#2_2" arrivalPos="82.50" arrivalPosLat="0.00" arrivalSpeed="24.52" duration="267.30" routeLength="1650.99" waitingTime="173.60" waitingCount="1" stopTime="0.00" timeLoss="206.78" rerouteNo="1" devices="tripinfo_C1_1.0 routing_C1_1.0" vType="jeep" speedFactor="1.00" vaporized=""/>
    <tripinfo id="C1_1.1" depart="41.05" departLane="440471861#0_1" departPos="5.10" departPosLat="0.00" departSpeed="28.06" departDelay="0.00" arrival="300.40" arrivalLane="-793339796#2_2" arrivalPos="82.50" arrivalPosLat="0.00" arrivalSpeed="26.16" duration="259.35" routeLength="1653.99" waitingTime="161.80" waitingCount="1" stopTime="0.00" timeLoss="199.30" rerouteNo="1" devices="tripinfo_C1_1.1 routing_C1_1.1" vType="car" speedFactor="1.01" vaporized=""/>
    <tripinfo id="C2_1.0" depart="20.15" departLane="440471861#0_2" departPos="5.10" departPosLat="0.00" departSpeed="26.58" departDelay="0.00" arrival="301.70" arrivalLane="-145894807#0_1" arrivalPos="260.95" arrivalPosLat="0.00" arrivalSpeed="7.97" duration="281.55" routeLength="1082.06" waitingTime="185.50" waitingCount="1" stopTime="0.00" timeLoss="192.47" rerouteNo="1" devices="tripinfo_C2_1.0 routing_C2_1.0" vType="car" speedFactor="0.96" vaporized=""/>
    <tripinfo id="C2_1.1" depart="161.10" departLane="440471861#0_2" departPos="8.10" departPosLat="0.00" departSpeed="27.78" departDelay="0.00" arrival="303.70" arrivalLane="-145894807#0_1" arrivalPos="260.95" arrivalPosLat="0.00" arrivalSpeed="8.33" duration="142.60" routeLength="1079.06" waitingTime="41.05" waitingCount="1" stopTime="0.00" timeLoss="57.43" rerouteNo="1" devices="tripinfo_C2_1.1 routing_C2_1.1" vType="jeep" speedFactor="1.00" vaporized=""/>
    <tripinfo id="C1_1.2" depart="231.00" departLane="440471861#0_1" departPos="2.30" departPosLat="0.00" departSpeed="28.47" departDelay="0.00" arrival="305.65" arrivalLane="-793339796#2_2" arrivalPos="82.50" arrivalPosLat="0.00" arrivalSpeed="28.43" duration="74.65" routeLength="1656.79" waitingTime="0.00" waitingCount="0" stopTime="0.00" timeLoss="15.38" rerouteNo="1" devices="tripinfo_C1_1.2 routing_C1_1.2" vType="tricycle" speedFactor="1.02" vaporized=""/>
    <tripinfo id="A1_1.0" depart="229.45" departLane="-793339796#2_1" departPos="8.10" departPosLat="0.00" departSpeed="27.78" departDelay="6.80" arrival="329.50" arrivalLane="-145894807#0_1" arrivalPos="260.95" arrivalPosLat="0.00" arrivalSpeed="8.33" duration="100.05" routeLength="1053.72" waitingTime="1.45" waitingCount="1" stopTime="0.00" timeLoss="10.63" rerouteNo="1" devices="tripinfo_A1_1.0 routing_A1_1.0" vType="jeep" speedFactor="1.00" vaporized=""/>
    <personinfo id="pf_4.5" depart="225.00" type="ped" speedFactor="1.01" duration="117.20" waitingTime="0.00" timeLoss="11.52" traveltime="117.20">
        <walk depart="225.00" departPos="25.00" arrival="281.95" arrivalPos="29.11" duration="56.95" routeLength="72.15" timeLoss="5.55" maxSpeed="1.40" waitingTime="0.00"/>
        <walk depart="281.95" departPos="29.11" arrival="342.20" arrivalPos="29.05" duration="60.25" routeLength="76.20" timeLoss="5.97" maxSpeed="1.40" waitingTime="0.00"/>
    </personinfo>
    <tripinfo id="B1_1.0" depart="171.30" departLane="-361257727#0_1" departPos="8.10" departPosLat="0.00" departSpeed="8.33" departDelay="0.00" arrival="342.50" arrivalLane="-793339796#2_2" arrivalPos="82.50" arrivalPosLat="0.00" arrivalSpeed="24.51" duration="171.20" routeLength="1912.44" waitingTime="0.75" waitingCount="1" stopTime="0.00" timeLoss="36.91" rerouteNo="1" devices="tripinfo_B1_1.0 routing_B1_1.0" vType="jeep" speedFactor="1.00" vaporized=""/>
    <personinfo id="pf_2.7" depart="315.00" type="ped" speedFactor="1.04" duration="32.05" waitingTime="8.40" timeLoss="10.84" traveltime="32.05">
        <walk depart="315.00" departPos="15.09" arrival="347.05" arrivalPos="3.44" duration="32.05" routeLength="30.72" timeLoss="10.84" maxSpeed="1.45" waitingTime="8.40"/>
    </personinfo>
    <tripinfo id="D3_1.1" depart="100.85" departLane="140483224#1_1" departPos="12.10" departPosLat="0.00" departSpeed="27.78" departDelay="0.00" arrival="348.85" arrivalLane="-440471861#0_2" arrivalPos="31.52" arrivalPosLat="0.00" arrivalSpeed="27.76" duration="248.00" routeLength="1060.97" waitingTime="190.90" waitingCount="1" stopTime="0.00" timeLoss="208.26" rerouteNo="1" devices="tripinfo_D3_1.1 routing_D3_1.1" vType="bus" speedFactor="1.00" vaporized=""/>
    <tripinfo id="D3_1.2" depart="208.30" departLane="140483224#1_1" departPos="2.30" departPosLat="0.00" departSpeed="24.40" departDelay="0.00" arrival="351.15" arrivalLane="-440471861#0_2" arrivalPos="31.52" arrivalPosLat="0.00" arrivalSpeed="24.36" duration="142.85" routeLength="1070.77" waitingTime="82.20" waitingCount="1" stopTime="0.00" timeLoss="97.21" rerouteNo="1" devices="tripinfo_D3_1.2 routing_D3_1.2" vType="tricycle" speedFactor="0.88" vaporized=""/>
    <tripinfo id="C1_1.3" depart="288.55" departLane="440471861#0_1" departPos="2.30" departPosLat="0.00" departSpeed="24.80" departDelay="0.00" arrival="359.90" arrivalLane="-793339796#2_2" arrivalPos="82.50" arrivalPosLat="0.00" arrivalSpeed="24.72" duration="71.35" routeLength="1656.79" waitingTime="0.00" waitingCount="0" stopTime="0.00" timeLoss="3.26" rerouteNo="1" devices="tripinfo_C1_1.3 routing_C1_1.3" vType="motorcycle" speedFactor="0.89" vaporized=""/>
    <tripinfo id="D1_1.1" depart="46.15" departLane="140483224#1_1" departPos="5.10" departPosLat="0.00" departSpeed="25.97" departDelay="0.00" arrival="372.05" arrivalLane="-793339796#2_2" arrivalPos="82.50" arrivalPosLat="0.00" arrivalSpeed="25.92" duration="325.90" routeLength="1648.38" waitingTime="244.60" waitingCount="1" stopTime="0.00" timeLoss="259.89" rerouteNo="1" devices="tripinfo_D1_1.1 routing_D1_1.1" vType="car" speedFactor="0.93" vaporized=""/>
    <tripinfo id="C2_1.2" depart="289.65" departLane="440471861#0_2" departPos="2.30" departPosLat="0.00" departSpeed="26.42" departDelay="0.00" arrival="380.65" arrivalLane="-145894807#0_1" arrivalPos="260.95" arrivalPosLat="0.00" arrivalSpeed="7.78" duration="91.00" routeLength="1084.86" waitingTime="0.00" waitingCount="0" stopTime="0.00" timeLoss="1.21" rerouteNo="1" devices="tripinfo_C2_1.2 routing_C2_1.2" vType="motorcycle" speedFactor="0.95" vaporized=""/>
    <tripinfo id="D3_1.3" depart="338.40" departLane="140483224#1_2" departPos="8.10" departPosLat="0.00" departSpeed="27.78" departDelay="0.00" arrival="385.75" arrivalLane="-440471861#0_2" arrivalPos="31.52" arrivalPosLat="0.00" arrivalSpeed="27.76" duration="47.35" routeLength="1064.97" waitingTime="0.00" waitingCount="0" stopTime="0.00" timeLoss="7.46" rerouteNo="1" devices="tripinfo_D3_1.3 routing_D3_1.3" vType="jeep" speedFactor="1.00" vaporized=""/>
    <tripinfo id="D1_1.2" depart="58.55" departLane="140483224#1_1" departPos="12.10" departPosLat="0.00" departSpeed="27.78" departDelay="0.00" arrival="389.30" arrivalLane="-793339796#2_2" arrivalPos="82.50" arrivalPosLat="0.00" arrivalSpeed="24.43" duration="330.75" routeLength="1641.38" waitingTime="233.50" waitingCount="1" stopTime="0.00" timeLoss="269.32" rerouteNo="1" devices="tripinfo_D1_1.2 routing_D1_1.2" vType="bus" speedFactor="1.00" vaporized=""/>
    <tripinfo id="D1_1.5" depart="226.35" departLane="140483224#1_1" departPos="2.30" departPosLat="0.00" departSpeed="26.36" departDelay="0.00" arrival="390.65" arrivalLane="-793339796#2_2" arrivalPos="82.50" arrivalPosLat="0.00" arrivalSpeed="26.27" duration="164.30" routeLength="1651.18" waitingTime="64.60" waitingCount="1" stopTime="0.00" timeLoss="99.14" rerouteNo="1" devices="tripinfo_D1_1.5 routing_D1_1.5" vType="motorcycle" speedFactor="0.95" vaporized=""/>
    <personinfo id="pf_4.6" depart="270.00" type="ped" speedFactor="0.97" duration="122.05" waitingTime="0.10" timeLoss="12.23" traveltime="122.05">
        <walk depart="270.00" departPos="25.00" arrival="329.40" arrivalPos="29.11" duration="59.40" routeLength="72.15" timeLoss="5.99" maxSpeed="1.35" waitingTime="0.10"/>
        <walk depart="329.40" departPos="29.11" arrival="392.05" arrivalPos="29.05" duration="62.65" routeLength="76.20" timeLoss="6.24" maxSpeed="1.35" waitingTime="0.00"/>
    </personinfo>
    <tripinfo id="D1_1.4" depart="178.90" departLane="140483224#1_1" departPos="5.10" departPosLat="0.00" departSpeed="26.12" departDelay="0.00" arrival="394.65" arrivalLane="-793339796#2_2" arrivalPos="82.50" arrivalPosLat="0.00" arrivalSpeed="26.11" duration="215.75" routeLength="1648.38" waitingTime="109.80" waitingCount="1" stopTime="0.00" timeLoss="150.14" rerouteNo="1" devices="tripinfo_D1_1.4 routing_D1_1.4" vType="car" speedFactor="0.94" vaporized=""/>
    <tripinfo id="D1_1.3" depart="118.00" departLane="140483224#1_1" departPos="7.20" departPosLat="0.00" departSpeed="28.45" departDelay="0.00" arrival="395.70" arrivalLane="-793339796#2_1" arrivalPos="82.50" arrivalPosLat="0.00" arrivalSpeed="25.38" duration="277.70" routeLength="1646.28" waitingTime="173.65" waitingCount="1" stopTime="0.00" timeLoss="217.55" rerouteNo="1" devices="tripinfo_D1_1.3 routing_D1_1.3" vType="truck" speedFactor="1.02" vaporized=""/>
    <personinfo id="pf_3.1" depart="45.00" type="ped" speedFactor="1.08" duration="353.30" waitingTime="5.15" timeLoss="39.89" traveltime="353.30">
        <walk depart="45.00" departPos="25.00" arrival="143.45" arrivalPos="19.11" duration="98.45" routeLength="132.56" timeLoss="9.89" maxSpeed="1.50" waitingTime="0.00"/>
        <walk depart="143.45" departPos="19.11" arrival="398.30" arrivalPos="22.72" duration="254.85" routeLength="336.55" timeLoss="30.00" maxSpeed="1.50" waitingTime="5.15"/>
    </personinfo>
    <tripinfo id="D2_1.0" depart="290.30" departLane="140483224#1_1" departPos="8.10" departPosLat="0.00" departSpeed="27.78" departDelay="0.00" arrival="399.15" arrivalLane="-145894807#0_1" arrivalPos="260.95" arrivalPosLat="0.00" arrivalSpeed="8.31" duration="108.85" routeLength="1089.76" waitingTime="7.70" waitingCount="9" stopTime="0.00" timeLoss="23.69" rerouteNo="1" devices="tripinfo_D2_1.0 routing_D2_1.0" vType="jeep" speedFactor="1.00" vaporized=""/>
    <tripinfo id="D3_1.4" depart="358.75" departLane="140483224#1_2" departPos="5.10" departPosLat="0.00" departSpeed="26.86" departDelay="0.00" arrival="404.00" arrivalLane="-440471861#0_2" arrivalPos="31.52" arrivalPosLat="0.00" arrivalSpeed="26.82" duration="45.25" routeLength="1067.97" waitingTime="0.00" waitingCount="0" stopTime="0.00" timeLoss="3.92" rerouteNo="1" devices="tripinfo_D3_1.4 routing_D3_1.4" vType="car" speedFactor="0.97" vaporized=""/>
    <tripinfo id="D3_1.5" depart="380.35" departLane="140483224#1_2" departPos="5.10" departPosLat="0.00" departSpeed="31.67" departDelay="0.00" arrival="420.00" arrivalLane="-440471861#0_2" arrivalPos="31.52" arrivalPosLat="0.00" arrivalSpeed="31.63" duration="39.65" routeLength="1067.97" waitingTime="0.00" waitingCount="0" stopTime="0.00" timeLoss="4.57" rerouteNo="1" devices="tripinfo_D3_1.5 routing_D3_1.5" vType="car" speedFactor="1.14" vaporized=""/>
    <personinfo id="pf_2.8" depart="360.00" type="ped" speedFactor="1.01" duration="60.15" waitingTime="35.70" timeLoss="38.19" traveltime="60.15">
        <walk depart="360.00" departPos="15.09" arrival="420.15" arrivalPos="3.44" duration="60.15" routeLength="30.72" timeLoss="38.19" maxSpeed="1.40" waitingTime="35.70"/>
    </personinfo>
    <tripinfo id="A1_1.1" depart="322.60" departLane="-793339796#2_1" departPos="7.20" departPosLat="0.00" departSpeed="26.48" departDelay="0.00" arrival="420.45" arrivalLane="-145894807#0_1" arrivalPos="260.95" arrivalPosLat="0.00" arrivalSpeed="7.94" duration="97.85" routeLength="1054.62" waitingTime="0.00" waitingCount="0" stopTime="0.00" timeLoss="3.97" rerouteNo="1" devices="tripinfo_A1_1.1 routing_A1_1.1" vType="truck" speedFactor="0.95" vaporized=""/>
    <tripinfo id="A2_1.1" depart="257.00" departLane="-793339796#2_1" departPos="5.10" departPosLat="0.00" departSpeed="29.15" departDelay="4.65" arrival="426.10" arrivalLane="-440471861#0_1" arrivalPos="31.52" arrivalPosLat="0.00" arrivalSpeed="29.13" duration="169.10" routeLength="1081.27" waitingTime="120.70" waitingCount="1" stopTime="0.00" timeLoss="131.97" rerouteNo="1" devices="tripinfo_A2_1.1 routing_A2_1.1" vType="car" speedFactor="1.05" vaporized=""/>
    <personinfo id="pf_3.0" depart="0.00" type="ped" speedFactor="0.88" duration="427.35" waitingTime="0.00" timeLoss="42.92" traveltime="427.35">
        <walk depart="0.00" departPos="25.00" arrival="120.50" arrivalPos="19.11" duration="120.50" routeLength="132.56" timeLoss="11.87" maxSpeed="1.22" waitingTime="0.00"/>
        <walk depart="120.50" departPos="19.11" arrival="427.35" arrivalPos="22.72" duration="306.85" routeLength="336.55" timeLoss="31.05" maxSpeed="1.22" waitingTime="0.00"/>
    </personinfo>
    <personinfo id="pf_2.9" depart="405.00" type="ped" speedFactor="1.02" duration="24.00" waitingTime="0.00" timeLoss="2.36" traveltime="24.00">
        <walk depart="405.00" departPos="15.09" arrival="429.00" arrivalPos="3.44" duration="24.00" routeLength="30.72" timeLoss="2.36" maxSpeed="1.42" waitingTime="0.00"/>
    </personinfo>
    <personinfo id="pf_4.7" depart="315.00" type="ped" speedFactor="1.04" duration="116.40" waitingTime="2.10" timeLoss="13.75" traveltime="116.40">
        <walk depart="315.00" departPos="25.00" arrival="372.95" arrivalPos="29.11" duration="57.95" routeLength="72.15" timeLoss="8.03" maxSpeed="1.45" waitingTime="2.10"/>
        <walk depart="372.95" departPos="29.11" arrival="431.40" arrivalPos="29.05" duration="58.45" routeLength="76.20" timeLoss="5.72" maxSpeed="1.45" waitingTime="0.00"/>
    </personinfo>
    <tripinfo id="A3_1.1" depart="148.50" departLane="-793339796#2_1" departPos="7.20" departPosLat="0.00" departSpeed="25.89" departDelay="0.00" arrival="434.10" arrivalLane="-140483224#1_2" arrivalPos="64.04" arrivalPosLat="0.00" arrivalSpeed="25.88" duration="285.60" routeLength="1078.84" waitingTime="227.70" waitingCount="1" stopTime="0.00" timeLoss="242.32" rerouteNo="1" devices="tripinfo_A3_1.1 routing_A3_1.1" vType="truck" speedFactor="0.93" vaporized=""/>
    <tripinfo id="A2_1.2" depart="271.75" departLane="-793339796#2_1" departPos="8.10" departPosLat="0.00" departSpeed="27.78" departDelay="10.30" arrival="435.30" arrivalLane="-440471861#0_1" arrivalPos="31.52" arrivalPosLat="0.00" arrivalSpeed="27.77" duration="163.55" routeLength="1078.27" waitingTime="101.65" waitingCount="1" stopTime="0.00" timeLoss="124.74" rerouteNo="1" devices="tripinfo_A2_1.2 routing_A2_1.2" vType="jeep" speedFactor="1.00" vaporized=""/>
    <tripinfo id="A3_1.2" depart="229.45" departLane="-793339796#2_2" departPos="5.10" departPosLat="0.00" departSpeed="28.21" departDelay="2.30" arrival="435.40" arrivalLane="-140483224#1_2" arrivalPos="64.04" arrivalPosLat="0.00" arrivalSpeed="28.04" duration="205.95" routeLength="1080.94" waitingTime="144.55" waitingCount="1" stopTime="0.00" timeLoss="166.13" rerouteNo="1" devices="tripinfo_A3_1.2 routing_A3_1.2" vType="car" speedFactor="1.02" vaporized=""/>
    <tripinfo id="A1_1.2" depart="329.65" departLane="-793339796#2_1" departPos="5.10" departPosLat="0.00" departSpeed="23.93" departDelay="0.00" arrival="436.50" arrivalLane="-145894807#0_1" arrivalPos="260.95" arrivalPosLat="0.00" arrivalSpeed="7.14" duration="106.85" routeLength="1056.72" waitingTime="0.00" waitingCount="0" stopTime="0.00" timeLoss="2.93" rerouteNo="1" devices="tripinfo_A1_1.2 routing_A1_1.2" vType="car" speedFactor="0.86" vaporized=""/>
    <tripinfo id="A3_1.3" depart="257.00" departLane="-793339796#2_2" departPos="2.30" departPosLat="0.00" departSpeed="26.97" departDelay="0.20" arrival="436.65" arrivalLane="-140483224#1_2" arrivalPos="64.04" arrivalPosLat="0.00" arrivalSpeed="26.95" duration="179.65" routeLength="1083.74" waitingTime="118.85" waitingCount="1" stopTime="0.00" timeLoss="137.89" rerouteNo="1" devices="tripinfo_A3_1.3 routing_A3_1.3" vType="tricycle" speedFactor="0.97" vaporized=""/>
    <tripinfo id="A2_1.3" depart="271.75" departLane="-793339796#2_2" departPos="5.10" departPosLat="0.00" departSpeed="27.11" departDelay="6.50" arrival="436.70" arrivalLane="-440471861#0_1" arrivalPos="31.52" arrivalPosLat="-0.00" arrivalSpeed="27.06" duration="164.95" routeLength="1081.27" waitingTime="99.65" waitingCount="1" stopTime="0.00" timeLoss="125.02" rerouteNo="1" devices="tripinfo_A2_1.3 routing_A2_1.3" vType="car" speedFactor="0.98" vaporized=""/>
    <tripinfo id="A3_1.4" depart="289.75" departLane="-793339796#2_1" departPos="2.30" departPosLat="0.00" departSpeed="29.51" departDelay="0.00" arrival="437.65" arrivalLane="-140483224#1_2" arrivalPos="64.04" arrivalPosLat="0.00" arrivalSpeed="29.37" duration="147.90" routeLength="1083.74" waitingTime="88.05" waitingCount="1" stopTime="0.00" timeLoss="109.73" rerouteNo="1" devices="tripinfo_A3_1.4 routing_A3_1.4" vType="motorcycle" speedFactor="1.06" vaporized=""/>
    <tripinfo id="A2_1.4" depart="348.45" departLane="-793339796#2_1" departPos="8.10" departPosLat="0.00" departSpeed="27.78" departDelay="10.90" arrival="437.90" arrivalLane="-440471861#0_2" arrivalPos="31.52" arrivalPosLat="0.00" arrivalSpeed="27.77" duration="89.45" routeLength="1078.27" waitingTime="26.55" waitingCount="1" stopTime="0.00" timeLoss="50.61" rerouteNo="1" devices="tripinfo_A2_1.4 routing_A2_1.4" vType="jeep" speedFactor="1.00" vaporized=""/>
    <tripinfo id="A1_1.3" depart="348.80" departLane="-793339796#2_1" departPos="7.20" departPosLat="0.00" departSpeed="24.06" departDelay="6.40" arrival="443.45" arrivalLane="-145894807#0_1" arrivalPos="260.95" arrivalPosLat="0.00" arrivalSpeed="8.29" duration="94.65" routeLength="1054.62" waitingTime="0.00" waitingCount="0" stopTime="0.00" timeLoss="4.94" rerouteNo="1" devices="tripinfo_A1_1.3 routing_A1_1.3" vType="truck" speedFactor="1.00" vaporized=""/>
    <tripinfo id="D1_1.6" depart="370.50" departLane="140483224#1_1" departPos="7.20" departPosLat="0.00" departSpeed="29.37" departDelay="0.00" arrival="452.55" arrivalLane="-793339796#2_2" arrivalPos="82.50" arrivalPosLat="0.00" arrivalSpeed="25.63" duration="82.05" routeLength="1646.28" waitingTime="0.00" waitingCount="0" stopTime="0.00" timeLoss="23.76" rerouteNo="1" devices="tripinfo_D1_1.6 routing_D1_1.6" vType="truck" speedFactor="1.06" vaporized=""/>
    <personinfo id="pf_1.3" depart="135.00" type="ped" speedFactor="1.08" duration="318.90" waitingTime="88.55" timeLoss="111.64" traveltime="318.90">
        <walk depart="135.00" departPos="25.00" arrival="453.90" arrivalPos="3.44" duration="318.90" routeLength="311.67" timeLoss="111.64" maxSpeed="1.50" waitingTime="88.55"/>
    </personinfo>