<?xml version="1.0" encoding="UTF-8"?>

<!-- generated on 2026-02-14 06:02:23 by Eclipse SUMO sumo Version 1.24.0
<sumoConfiguration xmlns:xsi="http://www.w3.org/2001/XMLSchema-instance" xsi:noNamespaceSchemaLocation="http://sumo.dlr.de/xsd/sumoConfiguration.xsd">

    <input>
        <net-file value="Olivarez_traci\network/map1.net.xml"/>
        <route-files value="Olivarez_traci\demand/flows_slow_traffic.rou.xml"/>
        <additional-files value="Olivarez_traci\additionals/map.poly.xml,Olivarez_traci\ additionals/detectors.add.xml"/>
    </input>

    <output>
        <tripinfo-output value="Olivarez_traci\output_DDPG\baseline_slow_SD_DDPG_trips.xml"/>
        <statistic-output value="Olivarez_traci\output_DDPG\baseline_slow_SD_DDPG_stats.xml"/>
    </output>

    <time>
        <begin value="0"/>
        <end value="10800"/>
        <step-length value="0.05"/>
    </time>

    <processing>
        <lateral-resolution value="0.1"/>
        <collision.action value="none"/>
        <collision.check-junctions value="false"/>
        <collision.mingap-factor value="0"/>
    </processing>

    <report>
        <no-warnings value="true"/>
    </report>

    <traci_server>
        <remote-port value="57938"/>
    </traci_server>

    <gui_only>
        <delay value="0"/>
    </gui_only>

</sumoConfiguration>
-->

<tripinfos xmlns:xsi="http://www.w3.org/2001/XMLSchema-instance" xsi:noNamespaceSchemaLocation="http://sumo.dlr.de/xsd/tripinfo_file.xsd">
    <personinfo id="pf_2.0" depart="0.00" type="ped" speedFactor="0.88" duration="28.05" waitingTime="0.00" timeLoss="2.87" traveltime="28.05">
        <walk depart="0.00" departPos="15.09" arrival="28.05" arrivalPos="3.44" duration="28.05" routeLength="30.72" timeLoss="2.87" maxSpeed="1.22" waitingTime="0.00"/>
    </personinfo>
    <tripinfo id="D3_1.0" depart="7.65" departLane="140483224#1_2" departPos="5.10" departPosLat="0.00" departSpeed="29.35" departDelay="0.00" arrival="60.70" arrivalLane="-440471861#0_2" arrivalPos="31.52" arrivalPosLat="0.00" arrivalSpeed="29.35" duration="53.05" routeLength="1067.97" waitingTime="6.15" waitingCount="1" stopTime="0.00" timeLoss="15.18" rerouteNo="1" devices="tripinfo_D3_1.0 routing_D3_1.0" vType="car" speedFactor="1.06" vaporized=""/>
    <tripinfo id="A2_1.0" depart="4.45" departLane="-793339796#2_1" departPos="5.10" departPosLat="0.00" departSpeed="28.99" departDelay="0.00" arrival="81.20" arrivalLane="-440471861#0_1" arrivalPos="31.52" arrivalPosLat="0.00" arrivalSpeed="28.96" duration="76.75" routeLength="1081.27" waitingTime="22.90" waitingCount="2" stopTime="0.00" timeLoss="39.43" rerouteNo="1" devices="tripinfo_A2_1.0 routing_A2_1.0" vType="car" speedFactor="1.04" vaporized=""/>
    <tripinfo id="A2_1.1" depart="8.20" departLane="-793339796#2_1" departPos="5.10" departPosLat="0.00" departSpeed="26.62" departDelay="0.00" arrival="82.45" arrivalLane="-440471861#0_2" arrivalPos="31.52" arrivalPosLat="0.00" arrivalSpeed="26.62" duration="74.25" routeLength="1081.27" waitingTime="18.75" waitingCount="1" stopTime="0.00" timeLoss="33.59" rerouteNo="1" devices="tripinfo_A2_1.1 routing_A2_1.1" vType="car" speedFactor="0.96" vaporized=""/>
    <tripinfo id="D1_1.0" depart="0.60" departLane="140483224#1_1" departPos="5.10" departPosLat="0.00" departSpeed="27.86" departDelay="0.00" arrival="85.60" arrivalLane="-793339796#2_1" arrivalPos="82.50" arrivalPosLat="-0.00" arrivalSpeed="27.81" duration="85.00" routeLength="1648.38" waitingTime="3.05" waitingCount="1" stopTime="0.00" timeLoss="23.48" rerouteNo="1" devices="tripinfo_D1_1.0 routing_D1_1.0" vType="car" speedFactor="1.00" vaporized=""/>
    <personinfo id="pf_4.0" depart="0.00" type="ped" speedFactor="1.03" duration="118.65" waitingTime="3.60" timeLoss="14.79" traveltime="118.65">
        <walk depart="0.00" departPos="25.00" arrival="55.95" arrivalPos="29.11" duration="55.95" routeLength="72.15" timeLoss="5.44" maxSpeed="1.43" waitingTime="0.00"/>
        <walk depart="55.95" departPos="29.11" arrival="118.65" arrivalPos="29.05" duration="62.70" routeLength="76.20" timeLoss="9.35" maxSpeed="1.43" waitingTime="3.60"/>
    </personinfo>
    <tripinfo id="D1_1.1" depart="37.25" departLane="140483224#1_1" departPos="12.10" departPosLat="0.00" departSpeed="27.78" departDelay="0.00" arrival="122.75" arrivalLane="-793339796#2_2" arrivalPos="82.50" arrivalPosLat="0.00" arrivalSpeed="24.44" duration="85.50" routeLength="1641.38" waitingTime="0.00" waitingCount="0" stopTime="0.00" timeLoss="24.07" rerouteNo="1" devices="tripinfo_D1_1.1 routing_D1_1.1" vType="bus" speedFactor="1.00" vaporized=""/>
    <tripinfo id="D1_1.3" depart="58.55" departLane="140483224#1_1" departPos="5.10" departPosLat="0.00" departSpeed="34.31" departDelay="0.00" arrival="132.90" arrivalLane="-793339796#2_1" arrivalPos="82.50" arrivalPosLat="0.00" arrivalSpeed="34.29" duration="74.35" routeLength="1648.38" waitingTime="0.00" waitingCount="0" stopTime="0.00" timeLoss="24.37" rerouteNo="1" devices="tripinfo_D1_1.3 routing_D1_1.3" vType="car" speedFactor="1.24" vaporized=""/>
    <tripinfo id="D1_1.2" depart="46.15" departLane="140483224#1_1" departPos="7.20" departPosLat="0.00" departSpeed="25.39" departDelay="0.00" arrival="134.30" arrivalLane="-793339796#2_2" arrivalPos="82.50" arrivalPosLat="0.00" arrivalSpeed="25.37" duration="88.15" routeLength="1646.28" waitingTime="0.00" waitingCount="0" stopTime="0.00" timeLoss="20.70" rerouteNo="1" devices="tripinfo_D1_1.2 routing_D1_1.2" vType="truck" speedFactor="0.91" vaporized=""/>
    <tripinfo id="C3_1.0" depart="11.40" departLane="440471861#0_1" departPos="5.10" departPosLat="0.00" departSpeed="28.45" departDelay="0.00" arrival="136.20" arrivalLane="-140483224#1_2" arrivalPos="64.04" arrivalPosLat="0.00" arrivalSpeed="28.42" duration="124.80" routeLength="1052.78" waitingTime="77.50" waitingCount="1" stopTime="0.00" timeLoss="86.48" rerouteNo="1" devices="tripinfo_C3_1.0 routing_C3_1.0" vType="car" speedFactor="1.02" vaporized=""/>
    <tripinfo id="C1_1.2" depart="41.05" departLane="440471861#0_1" departPos="5.10" departPosLat="0.00" departSpeed="30.59" departDelay="0.00" arrival="139.05" arrivalLane="-793339796#2_2" arrivalPos="82.50" arrivalPosLat="0.00" arrivalSpeed="30.57" duration="98.00" routeLength="1653.99" waitingTime="12.35" waitingCount="1" stopTime="0.00" timeLoss="42.93" rerouteNo="1" devices="tripinfo_C1_1.2 routing_C1_1.2" vType="car" speedFactor="1.10" vaporized=""/>
    <tripinfo id="C3_1.2" depart="78.25" departLane="440471861#0_1" departPos="5.10" departPosLat="0.00" departSpeed="27.91" departDelay="0.00" arrival="142.45" arrivalLane="-140483224#1_1" arrivalPos="64.04" arrivalPosLat="0.00" arrivalSpeed="27.88" duration="64.20" routeLength="1052.78" waitingTime="7.15" waitingCount="1" stopTime="0.00" timeLoss="25.10" rerouteNo="1" devices="tripinfo_C3_1.2 routing_C3_1.2" vType="car" speedFactor="1.00" vaporized=""/>
    <tripinfo id="C3_1.1" depart="43.55" departLane="440471861#0_1" departPos="7.20" departPosLat="0.00" departSpeed="26.91" departDelay="0.00" arrival="144.50" arrivalLane="-140483224#1_2" arrivalPos="64.04" arrivalPosLat="0.00" arrivalSpeed="26.88" duration="100.95" routeLength="1050.68" waitingTime="27.40" waitingCount="2" stopTime="0.00" timeLoss="60.50" rerouteNo="1" devices="tripinfo_C3_1.1 routing_C3_1.1" vType="truck" speedFactor="0.97" vaporized=""/>
    <personinfo id="pf_4.1" depart="22.50" type="ped" speedFactor="1.04" duration="123.25" waitingTime="9.75" timeLoss="20.92" traveltime="123.25">
        <walk depart="22.50" departPos="25.00" arrival="77.70" arrivalPos="29.11" duration="55.20" routeLength="72.15" timeLoss="5.43" maxSpeed="1.45" waitingTime="0.00"/>
        <walk depart="77.70" departPos="29.11" arrival="145.75" arrivalPos="29.05" duration="68.05" routeLength="76.20" timeLoss="15.49" maxSpeed="1.45" waitingTime="9.75"/>
    </personinfo>
    <tripinfo id="C1_1.0" depart="17.65" departLane="440471861#0_1" departPos="8.10" departPosLat="0.00" departSpeed="27.78" departDelay="0.00" arrival="149.60" arrivalLane="-793339796#2_2" arrivalPos="82.50" arrivalPosLat="0.00" arrivalSpeed="24.40" duration="131.95" routeLength="1650.99" waitingTime="34.70" waitingCount="1" stopTime="0.00" timeLoss="71.43" rerouteNo="1" devices="tripinfo_C1_1.0 routing_C1_1.0" vType="jeep" speedFactor="1.00" vaporized=""/>
    <tripinfo id="C1_1.1" depart="31.85" departLane="440471861#0_1" departPos="5.10" departPosLat="0.00" departSpeed="25.38" departDelay="0.00" arrival="150.85" arrivalLane="-793339796#2_2" arrivalPos="82.50" arrivalPosLat="0.00" arrivalSpeed="25.36" duration="119.00" routeLength="1653.99" waitingTime="25.35" waitingCount="1" stopTime="0.00" timeLoss="52.62" rerouteNo="1" devices="tripinfo_C1_1.1 routing_C1_1.1" vType="car" speedFactor="0.91" vaporized=""/>
    <tripinfo id="C1_1.3" depart="71.00" departLane="440471861#0_1" departPos="5.10" departPosLat="0.00" departSpeed="29.37" departDelay="0.00" arrival="152.05" arrivalLane="-793339796#2_1" arrivalPos="82.50" arrivalPosLat="0.00" arrivalSpeed="26.50" duration="81.05" routeLength="1653.99" waitingTime="0.00" waitingCount="0" stopTime="0.00" timeLoss="23.69" rerouteNo="1" devices="tripinfo_C1_1.3 routing_C1_1.3" vType="car" speedFactor="1.06" vaporized=""/>
    <tripinfo id="C3_1.3" depart="104.00" departLane="440471861#0_1" departPos="8.10" departPosLat="0.00" departSpeed="27.78" departDelay="0.00" arrival="152.75" arrivalLane="-140483224#1_1" arrivalPos="64.04" arrivalPosLat="0.00" arrivalSpeed="27.78" duration="48.75" routeLength="1049.78" waitingTime="0.00" waitingCount="0" stopTime="0.00" timeLoss="9.59" rerouteNo="1" devices="tripinfo_C3_1.3 routing_C3_1.3" vType="jeep" speedFactor="1.00" vaporized=""/>
    <personinfo id="pf_4.2" depart="45.00" type="ped" speedFactor="1.08" duration="109.75" waitingTime="0.00" timeLoss="10.86" traveltime="109.75">
        <walk depart="45.00" departPos="25.00" arrival="98.40" arrivalPos="29.11" duration="53.40" routeLength="72.15" timeLoss="5.31" maxSpeed="1.50" waitingTime="0.00"/>
        <walk depart="98.40" departPos="29.11" arrival="154.75" arrivalPos="29.05" duration="56.35" routeLength="76.20" timeLoss="5.56" maxSpeed="1.50" waitingTime="0.00"/>
    </personinfo>
    <tripinfo id="C2_1.0" depart="20.15" departLane="440471861#0_2" departPos="2.30" departPosLat="0.00" departSpeed="25.10" departDelay="0.00" arrival="156.30" arrivalLane="-145894807#0_1" arrivalPos="260.95" arrivalPosLat="0.00" arrivalSpeed="7.43" duration="136.15" routeLength="1084.86" waitingTime="29.40" waitingCount="1" stopTime="0.00" timeLoss="41.67" rerouteNo="1" devices="tripinfo_C2_1.0 routing_C2_1.0" vType="motorcycle" speedFactor="0.90" vaporized=""/>
    <tripinfo id="B2_1.0" depart="31.00" departLane="-361257727#0_1" departPos="5.10" departPosLat="0.00" departSpeed="8.11" departDelay="0.00" arrival="156.35" arrivalLane="-440471861#0_1" arrivalPos="31.52" arrivalPosLat="-0.00" arrivalSpeed="27.03" duration="125.35" routeLength="1397.68" waitingTime="0.00" waitingCount="0" stopTime="0.00" timeLoss="5.02" rerouteNo="1" devices="tripinfo_B2_1.0 routing_B2_1.0" vType="car" speedFactor="0.97" vaporized=""/>
    <tripinfo id="B1_1.0" depart="37.80" departLane="-361257727#0_1" departPos="5.10" departPosLat="0.00" departSpeed="8.63" departDelay="0.00" arrival="184.10" arrivalLane="-793339796#2_2" arrivalPos="82.50" arrivalPosLat="0.00" arrivalSpeed="28.75" duration="146.30" routeLength="1915.44" waitingTime="0.00" waitingCount="0" stopTime="0.00" timeLoss="16.35" rerouteNo="1" devices="tripinfo_B1_1.0 routing_B1_1.0" vType="car" speedFactor="1.04" vaporized=""/>
    <tripinfo id="B2_1.1" depart="64.60" departLane="-361257727#0_1" departPos="12.10" departPosLat="0.00" departSpeed="8.33" departDelay="0.00" arrival="191.85" arrivalLane="-440471861#0_1" arrivalPos="31.52" arrivalPosLat="0.00" arrivalSpeed="27.78" duration="127.25" routeLength="1390.68" waitingTime="0.00" waitingCount="0" stopTime="0.00" timeLoss="11.00" rerouteNo="1" devices="tripinfo_B2_1.1 routing_B2_1.1" vType="bus" speedFactor="1.00" vaporized=""/>
    <personinfo id="pf_4.3" depart="67.50" type="ped" speedFactor="0.99" duration="126.75" waitingTime="7.25" timeLoss="19.18" traveltime="126.75">
        <walk depart="67.50" departPos="25.00" arrival="132.85" arrivalPos="29.11" duration="65.35" routeLength="72.15" timeLoss="13.03" maxSpeed="1.38" waitingTime="7.25"/>
        <walk depart="132.85" departPos="29.11" arrival="194.25" arrivalPos="29.05" duration="61.40" routeLength="76.20" timeLoss="6.14" maxSpeed="1.38" waitingTime="0.00"/>
    </personinfo>
    <tripinfo id="B2_1.2" depart="75.15" departLane="-361257727#0_1" departPos="7.20" departPosLat="0.00" departSpeed="8.24" departDelay="0.00" arrival="203.15" arrivalLane="-440471861#0_1" arrivalPos="31.52" arrivalPosLat="0.00" arrivalSpeed="27.45" duration="128.00" routeLength="1395.58" waitingTime="0.00" waitingCount="0" stopTime="0.00" timeLoss="9.83" rerouteNo="1" devices="tripinfo_B2_1.2 routing_B2_1.2" vType="truck" speedFactor="0.99" vaporized=""/>
    <tripinfo id="D1_1.4" depart="118.00" departLane="140483224#1_1" departPos="2.30" departPosLat="0.00" departSpeed="31.39" departDelay="0.00" arrival="204.45" arrivalLane="-793339796#2_2" arrivalPos="82.50" arrivalPosLat="0.00" arrivalSpeed="31.23" duration="86.45" routeLength="1651.18" waitingTime="8.45" waitingCount="1" stopTime="0.00" timeLoss="31.73" rerouteNo="1" devices="tripinfo_D1_1.4 routing_D1_1.4" vType="tricycle" speedFactor="1.13" vaporized=""/>
    <tripinfo id="D3_1.1" depart="100.85" departLane="140483224#1_2" departPos="5.10" departPosLat="0.00" departSpeed="24.64" departDelay="0.00" arrival="208.80" arrivalLane="-440471861#0_2" arrivalPos="31.52" arrivalPosLat="0.00" arrivalSpeed="24.64" duration="107.95" routeLength="1067.97" waitingTime="55.30" waitingCount="1" stopTime="0.00" timeLoss="62.90" rerouteNo="1" devices="tripinfo_D3_1.1 routing_D3_1.1" vType="car" speedFactor="0.89" vaporized=""/>
    <personinfo id="pf_4.4" depart="90.00" type="ped" speedFactor="0.98" duration="120.55" waitingTime="0.00" timeLoss="11.78" traveltime="120.55">
        <walk depart="90.00" departPos="25.00" arrival="148.55" arrivalPos="29.11" duration="58.55" routeLength="72.15" timeLoss="5.65" maxSpeed="1.36" waitingTime="0.00"/>
        <walk depart="148.55" departPos="29.11" arrival="210.55" arrivalPos="29.05" duration="62.00" routeLength="76.20" timeLoss="6.13" maxSpeed="1.36" waitingTime="0.00"/>
    </personinfo>
    <tripinfo id="D3_1.2" depart="106.35" departLane="140483224#1_2" departPos="8.10" departPosLat="0.00" departSpeed="27.78" departDelay="0.00" arrival="215.45" arrivalLane="-440471861#0_2" arrivalPos="31.52" arrivalPosLat="0.00" arrivalSpeed="27.77" duration="109.10" routeLength="1064.97" waitingTime="51.85" waitingCount="1" stopTime="0.00" timeLoss="69.20" rerouteNo="1" devices="tripinfo_D3_1.2 routing_D3_1.2" vType="jeep" speedFactor="1.00" vaporized=""/>
    <personinfo id="pf_4.5" depart="112.50" type="ped" speedFactor="1.08" duration="109.60" waitingTime="0.00" timeLoss="11.04" traveltime="109.60">
        <walk depart="112.50" departPos="25.00" arrival="165.70" arrivalPos="29.11" duration="53.20" routeLength="72.15" timeLoss="5.27" maxSpeed="1.51" waitingTime="0.00"/>
        <walk depart="165.70" departPos="29.11" arrival="222.10" arrivalPos="29.05" duration="56.40" routeLength="76.20" timeLoss="5.77" maxSpeed="1.51" waitingTime="0.00"/>
    </personinfo>
    <tripinfo id="D2_1.0" depart="67.40" departLane="140483224#1_1" departPos="2.30" departPosLat="0.00" departSpeed="25.73" departDelay="0.00" arrival="226.20" arrivalLane="-145894807#0_1" arrivalPos="260.95" arrivalPosLat="0.00" arrivalSpeed="7.68" duration="158.80" routeLength="1095.56" waitingTime="58.15" waitingCount="2" stopTime="0.00" timeLoss="66.63" rerouteNo="1" devices="tripinfo_D2_1.0 routing_D2_1.0" vType="tricycle" speedFactor="0.93" vaporized=""/>
    <personinfo id="pf_4.6" depart="135.00" type="ped" speedFactor="1.24" duration="99.40" waitingTime="3.85" timeLoss="13.34" traveltime="99.40">
        <walk depart="135.00" departPos="25.00" arrival="181.50" arrivalPos="29.11" duration="46.50" routeLength="72.15" timeLoss="4.64" maxSpeed="1.72" waitingTime="0.00"/>
        <walk depart="181.50" departPos="29.11" arrival="234.40" arrivalPos="29.05" duration="52.90" routeLength="76.20" timeLoss="8.70" maxSpeed="1.72" waitingTime="3.85"/>
    </personinfo>
    <personinfo id="pf_2.3" depart="67.50" type="ped" speedFactor="1.13" duration="167.10" waitingTime="145.15" timeLoss="147.47" traveltime="167.10">
        <walk depart="67.50" departPos="15.09" arrival="234.60" arrivalPos="3.44" duration="167.10" routeLength="30.72" timeLoss="147.47" maxSpeed="1.57" waitingTime="145.15"/>
    </personinfo>
    <personinfo id="pf_2.1" depart="22.50" type="ped" speedFactor="1.08" duration="212.55" waitingTime="189.85" timeLoss="192.02" traveltime="212.55">
        <walk depart="22.50" departPos="15.09" arrival="235.05" arrivalPos="3.44" duration="212.55" routeLength="30.72" timeLoss="192.02" maxSpeed="1.50" waitingTime="189.85"/>
    </personinfo>
    <tripinfo id="A2_1.2" depart="75.00" departLane="-793339796#2_1" departPos="8.10" departPosLat="0.00" departSpeed="27.78" departDelay="10.05" arrival="235.25" arrivalLane="-440471861#0_1" arrivalPos="31.52" arrivalPosLat="0.00" arrivalSpeed="27.75" duration="160.25" routeLength="1078.27" waitingTime="102.75" waitingCount="1" stopTime="0.00" timeLoss="121.41" rerouteNo="1" devices="tripinfo_A2_1.2 routing_A2_1.2" vType="jeep" speedFactor="1.00" vaporized=""/>
    <personinfo id="pf_2.4" depart="90.00" type="ped" speedFactor="1.05" duration="145.60" waitingTime="122.15" timeLoss="124.57" traveltime="145.60">
        <walk depart="90.00" departPos="15.09" arrival="235.60" arrivalPos="3.44" duration="145.60" routeLength="30.72" timeLoss="124.57" maxSpeed="1.46" waitingTime="122.15"/>
    </personinfo>
    <personinfo id="pf_2.7" depart="157.50" type="ped" speedFactor="1.03" duration="78.85" waitingTime="55.15" timeLoss="57.37" traveltime="78.85">
        <walk depart="157.50" departPos="15.09" arrival="236.35" arrivalPos="3.44" duration="78.85" routeLength="30.72" timeLoss="57.37" maxSpeed="1.43" waitingTime="55.15"/>
    </personinfo>
    <personinfo id="pf_2.2" depart="45.00" type="ped" speedFactor="0.99" duration="191.45" waitingTime="166.60" timeLoss="169.17" traveltime="191.45">
        <walk depart="45.00" departPos="15.09" arrival="236.45" arrivalPos="3.44" duration="191.45" routeLength="30.72" timeLoss="169.17" maxSpeed="1.38" waitingTime="166.60"/>
    </personinfo>
    <personinfo id="pf_2.6" depart="135.00" type="ped" speedFactor="1.00" duration="101.95" waitingTime="77.45" timeLoss="79.93" traveltime="101.95">
        <walk depart="135.00" departPos="15.09" arrival="236.95" arrivalPos="3.44" duration="101.95" routeLength="30.72" timeLoss="79.93" maxSpeed="1.39" waitingTime="77.45"/>
    </personinfo>
    <tripinfo id="A2_1.3" depart="168.85" departLane="-793339796#2_2" departPos="7.20" departPosLat="0.00" departSpeed="24.83" departDelay="12.40" arrival="237.20" arrivalLane="-440471861#0_1" arrivalPos="31.52" arrivalPosLat="-0.00" arrivalSpeed="24.81" duration="68.35" routeLength="1079.17" waitingTime="0.00" waitingCount="0" stopTime="0.00" timeLoss="24.86" rerouteNo="1" devices="tripinfo_A2_1.3 routing_A2_1.3" vType="truck" speedFactor="0.89" vaporized=""/>
    <personinfo id="pf_2.8" depart="180.00" type="ped" speedFactor="0.98" duration="58.00" waitingTime="33.00" timeLoss="35.52" traveltime="58.00">
        <walk depart="180.00" departPos="15.09" arrival="238.00" arrivalPos="3.44" duration="58.00" routeLength="30.72" timeLoss="35.52" maxSpeed="1.37" waitingTime="33.00"/>
    </personinfo>
    <personinfo id="pf_2.5" depart="112.50" type="ped" speedFactor="0.91" duration="126.10" waitingTime="99.20" timeLoss="101.91" traveltime="126.10">
        <walk depart="112.50" departPos="15.09" arrival="238.60" arrivalPos="3.44" duration="126.10" routeLength="30.72" timeLoss="101.91" maxSpeed="1.27" waitingTime="99.20"/>
    </personinfo>
    <personinfo id="pf_2.9" depart="202.50" type="ped" speedFactor="0.94" duration="36.70" waitingTime="10.55" timeLoss="13.17" traveltime="36.70">
        <walk depart="202.50" departPos="15.09" arrival="239.20" arrivalPos="3.44" duration="36.70" routeLength="30.72" timeLoss="13.17" maxSpeed="1.31" waitingTime="10.55"/>
    </personinfo>
    <tripinfo id="A3_1.1" depart="142.40" departLane="-793339796#2_2" departPos="5.10" departPosLat="0.00" departSpeed="33.02" departDelay="45.70" arrival="243.30" arrivalLane="-140483224#1_1" arrivalPos="64.04" arrivalPosLat="-0.00" arrivalSpeed="33.01" duration="100.90" routeLength="1080.94" waitingTime="37.55" waitingCount="3" stopTime="0.00" timeLoss="66.89" rerouteNo="1" devices="tripinfo_A3_1.1 routing_A3_1.1" vType="car" speedFactor="1.19" vaporized=""/>
    <tripinfo id="D1_1.5" depart="157.60" departLane="140483224#1_1" departPos="12.10" departPosLat="0.00" departSpeed="27.78" departDelay="0.00" arrival="244.00" arrivalLane="-793339796#2_2" arrivalPos="82.50" arrivalPosLat="0.00" arrivalSpeed="24.32" duration="86.40" routeLength="1641.38" waitingTime="0.00" waitingCount="0" stopTime="0.00" timeLoss="24.98" rerouteNo="1" devices="tripinfo_D1_1.5 routing_D1_1.5" vType="bus" speedFactor="1.00" vaporized=""/>
    <tripinfo id="A1_1.0" depart="142.40" departLane="-793339796#2_1" departPos="5.10" departPosLat="0.00" departSpeed="24.54" departDelay="63.45" arrival="246.65" arrivalLane="-145894807#0_1" arrivalPos="260.95" arrivalPosLat="0.00" arrivalSpeed="7.33" duration="104.25" routeLength="1056.72" waitingTime="0.00" waitingCount="0" stopTime="0.00" timeLoss="2.95" rerouteNo="1" devices="tripinfo_A1_1.0 routing_A1_1.0" vType="car" speedFactor="0.88" vaporized=""/>
    <personinfo id="pf_2.10" depart="225.00" type="ped" speedFactor="1.09" duration="22.55" waitingTime="0.00" timeLoss="2.20" traveltime="22.55">
        <walk depart="225.00" departPos="15.09" arrival="247.55" arrivalPos="3.44" duration="22.55" routeLength="30.72" timeLoss="2.20" maxSpeed="1.51" waitingTime="0.00"/>
    </personinfo>
    <tripinfo id="A1_1.1" depart="142.85" departLane="-793339796#2_1" departPos="8.10" departPosLat="0.00" departSpeed="19.52" departDelay="17.20" arrival="248.60" arrivalLane="-145894807#0_1" arrivalPos="260.95" arrivalPosLat="0.00" arrivalSpeed="8.32" duration="105.75" routeLength="1053.72" waitingTime="0.00" waitingCount="0" stopTime="0.00" timeLoss="16.30" rerouteNo="1" devices="tripinfo_A1_1.1 routing_A1_1.1" vType="jeep" speedFactor="1.00" vaporized=""/>
    <tripinfo id="D2_1.1" depart="92.60" departLane="140483224#1_1" departPos="7.20" departPosLat="0.00" departSpeed="29.74" departDelay="0.00" arrival="250.70" arrivalLane="-145894807#0_1" arrivalPos="260.95" arrivalPosLat="0.00" arrivalSpeed="8.90" duration="158.10" routeLength="1090.66" waitingTime="47.05" waitingCount="2" stopTime="0.00" timeLoss="78.48" rerouteNo="1" devices="tripinfo_D2_1.1 routing_D2_1.1" vType="truck" speedFactor="1.07" vaporized=""/>
    <tripinfo id="A3_1.0" depart="75.00" departLane="-793339796#2_2" departPos="8.10" departPosLat="0.00" departSpeed="27.78" departDelay="11.45" arrival="253.00" arrivalLane="-140483224#1_2" arrivalPos="64.04" arrivalPosLat="0.00" arrivalSpeed="27.76" duration="178.00" routeLength="1077.94" waitingTime="110.90" waitingCount="2" stopTime="0.00" timeLoss="137.68" rerouteNo="1" devices="tripinfo_A3_1.0 routing_A3_1.0" vType="jeep" speedFactor="1.00" vaporized=""/>
    <tripinfo id="A3_1.2" depart="142.75" departLane="-793339796#2_2" departPos="8.10" departPosLat="0.00" departSpeed="27.47" departDelay="35.45" arrival="253.80" arrivalLane="-140483224#1_1" arrivalPos="64.04" arrivalPosLat="-0.00" arrivalSpeed="27.78" duration="111.05" routeLength="1077.94" waitingTime="32.45" waitingCount="2" stopTime="0.00" timeLoss="70.72" rerouteNo="1" devices="tripinfo_A3_1.2 routing_A3_1.2" vType="jeep" speedFactor="1.00" vaporized=""/>
    <personinfo id="pf_1.0" depart="0.00" type="ped" speedFactor="1.06" duration="253.95" waitingTime="19.15" timeLoss="42.25" traveltime="253.95">
        <walk depart="0.00" departPos="25.00" arrival="253.95" arrivalPos="3.44" duration="253.95" routeLength="311.67" timeLoss="42.25" maxSpeed="1.47" waitingTime="19.15"/>
    </personinfo>
    <tripinfo id="A1_1.2" depart="168.85" departLane="-793339796#2_1" departPos="5.10" departPosLat="0.00" departSpeed="25.50" departDelay="14.25" arrival="269.40" arrivalLane="-145894807#0_1" arrivalPos="260.95" arrivalPosLat="0.00" arrivalSpeed="7.64" duration="100.55" routeLength="1056.72" waitingTime="0.00" waitingCount="0" stopTime="0.00" timeLoss="3.06" rerouteNo="1" devices="tripinfo_A1_1.2 routing_A1_1.2" vType="car" speedFactor="0.92" vaporized=""/>
    <personinfo id="pf_4.7" depart="157.50" type="ped" speedFactor="1.06" duration="111.95" waitingTime="0.00" timeLoss="11.26" traveltime="111.95">
        <walk depart="157.50" departPos="25.00" arrival="211.95" arrivalPos="29.11" duration="54.45" routeLength="72.15" timeLoss="5.48" maxSpeed="1.47" waitingTime="0.00"/>
        <walk depart="211.95" departPos="29.11" arrival="269.45" arrivalPos="29.05" duration="57.50" routeLength="76.20" timeLoss="5.78" maxSpeed="1.47" waitingTime="0.00"/>
    </personinfo>
    <tripinfo id="C3_1.4" depart="161.95" departLane="440471861#0_1" departPos="5.10" departPosLat="0.00" departSpeed="27.30" departDelay="0.00" arrival="281.95" arrivalLane="-140483224#1_1" arrivalPos="64.04" arrivalPosLat="0.00" arrivalSpeed="27.28" duration="120.00" routeLength="1052.78" waitingTime="63.90" waitingCount="2" stopTime="0.00" timeLoss="80.04" rerouteNo="1" devices="tripinfo_C3_1.4 routing_C3_1.4" vType="car" speedFactor="0.98" vaporized=""/>
    <tripinfo id="C3_1.5" depart="180.75" departLane="440471861#0_1" departPos="5.10" departPosLat="0.00" departSpeed="29.50" departDelay="0.00" arrival="282.45" arrivalLane="-140483224#1_2" arrivalPos="64.04" arrivalPosLat="0.00" arrivalSpeed="29.48" duration="101.70" routeLength="1052.78" waitingTime="43.90" waitingCount="2" stopTime="0.00" timeLoss="64.73" rerouteNo="1" devices="tripinfo_C3_1.5 routing_C3_1.5" vType="car" speedFactor="1.06" vaporized=""/>
    <tripinfo id="C3_1.6" depart="228.05" departLane="440471861#0_1" departPos="8.10" departPosLat="0.00" departSpeed="27.78" departDelay="0.00" arrival="291.20" arrivalLane="-140483224#1_1" arrivalPos="64.04" arrivalPosLat="0.00" arrivalSpeed="27.77" duration="63.15" routeLength="1049.78" waitingTime="2.20" waitingCount="1" stopTime="0.00" timeLoss="23.98" rerouteNo="1" devices="tripinfo_C3_1.6 routing_C3_1.6" vType="jeep" speedFactor="1.00" vaporized=""/>
    <tripinfo id="C1_1.5" depart="231.00" departLane="440471861#0_1" departPos="2.30" departPosLat="0.00" departSpeed="30.32" departDelay="0.00" arrival="293.65" arrivalLane="-793339796#2_2" arrivalPos="82.50" arrivalPosLat="0.00" arrivalSpeed="30.17" duration="62.65" routeLength="1656.79" waitingTime="0.00" waitingCount="0" stopTime="0.00" timeLoss="7.00" rerouteNo="1" devices="tripinfo_C1_1.5 routing_C1_1.5" vType="motorcycle" speedFactor="1.09" vaporized=""/>
    <tripinfo id="C2_1.1" depart="161.10" departLane="440471861#0_2" departPos="8.10" departPosLat="0.00" departSpeed="27.78" departDelay="0.00" arrival="293.95" arrivalLane="-145894807#0_1" arrivalPos="260.95" arrivalPosLat="0.00" arrivalSpeed="8.32" duration="132.85" routeLength="1079.06" waitingTime="37.40" waitingCount="1" stopTime="0.00" timeLoss="47.68" rerouteNo="1" devices="tripinfo_C2_1.1 routing_C2_1.1" vType="jeep" speedFactor="1.00" vaporized=""/>
    <personinfo id="pf_4.8" depart="180.00" type="ped" speedFactor="1.09" duration="114.30" waitingTime="5.50" timeLoss="16.08" traveltime="114.30">
        <walk depart="180.00" departPos="25.00" arrival="238.55" arrivalPos="29.11" duration="58.55" routeLength="72.15" timeLoss="10.78" maxSpeed="1.51" waitingTime="5.50"/>
        <walk depart="238.55" departPos="29.11" arrival="294.30" arrivalPos="29.05" duration="55.75" routeLength="76.20" timeLoss="5.30" maxSpeed="1.51" waitingTime="0.00"/>
    </personinfo>
    <tripinfo id="C2_1.2" depart="210.30" departLane="440471861#0_2" departPos="2.30" departPosLat="0.00" departSpeed="29.34" departDelay="0.00" arrival="296.10" arrivalLane="-145894807#0_1" arrivalPos="260.95" arrivalPosLat="0.00" arrivalSpeed="8.79" duration="85.80" routeLength="1084.86" waitingTime="0.00" waitingCount="0" stopTime="0.00" timeLoss="4.96" rerouteNo="1" devices="tripinfo_C2_1.2 routing_C2_1.2" vType="tricycle" speedFactor="1.06" vaporized=""/>
    <tripinfo id="C1_1.4" depart="147.20" departLane="440471861#0_1" departPos="5.10" departPosLat="0.00" departSpeed="26.58" departDelay="0.00" arrival="305.85" arrivalLane="-793339796#2_2" arrivalPos="82.50" arrivalPosLat="0.00" arrivalSpeed="26.53" duration="158.65" routeLength="1653.99" waitingTime="71.15" waitingCount="2" stopTime="0.00" timeLoss="95.28" rerouteNo="1" devices="tripinfo_C1_1.4 routing_C1_1.4" vType="car" speedFactor="0.96" vaporized=""/>
    <tripinfo id="D1_1.6" depart="178.90" departLane="140483224#1_1" departPos="5.10" departPosLat="0.00" departSpeed="22.79" departDelay="0.00" arrival="311.85" arrivalLane="-793339796#2_2" arrivalPos="82.50" arrivalPosLat="0.00" arrivalSpeed="22.73" duration="132.95" routeLength="1648.38" waitingTime="33.30" waitingCount="2" stopTime="0.00" timeLoss="57.76" rerouteNo="1" devices="tripinfo_D1_1.6 routing_D1_1.6" vType="car" speedFactor="0.82" vaporized=""/>