<?xml version="1.0" encoding="UTF-8"?>

<!-- generated on 2026-02-12 19:56:08 by Eclipse SUMO sumo Version 1.24.0
<sumoConfiguration xmlns:xsi="http://www.w3.org/2001/XMLSchema-instance" xsi:noNamespaceSchemaLocation="http://sumo.dlr.de/xsd/sumoConfiguration.xsd">

    <input>
        <net-file value="Olivarez_traci/network/map1.net.xml"/>
        <route-files value="Olivarez_traci/demand/flows_normal_traffic.rou.xml"/>
        <additional-files value="Olivarez_traci/additionals/map.poly.xml,Olivarez_traci/ additionals/detectors.add.xml"/>
    </input>

    <output>
        <tripinfo-output value="Olivarez_traci\output_DDPG\Global_SD_DDPG_trips.xml"/>
        <statistic-output value="Olivarez_traci\output_DDPG\Global_SD_DDPG_stats.xml"/>
    </output>

    <time>
        <begin value="0"/>
        <end value="10800"/>
        <step-length value="0.1"/>
    </time>

    <processing>
        <lateral-resolution value="0.1"/>
        <collision.action value="none"/>
        <collision.check-junctions value="false"/>
        <collision.mingap-factor value="0"/>
    </processing>

    <report>
        <no-warnings value="true"/>
    </report>

    <traci_server>
        <remote-port value="62098"/>
    </traci_server>

    <gui_only>
        <delay value="0"/>
    </gui_only>

</sumoConfiguration>
-->

<tripinfos xmlns:xsi="http://www.w3.org/2001/XMLSchema-instance" xsi:noNamespaceSchemaLocation="http://sumo.dlr.de/xsd/tripinfo_file.xsd">
    <personinfo id="pf_2.0" depart="0.00" type="ped" speedFactor="1.03" duration="23.90" waitingTime="0.00" timeLoss="2.52" traveltime="23.90">
        <walk depart="0.00" departPos="15.09" arrival="23.90" arrivalPos="3.44" duration="23.90" routeLength="30.72" timeLoss="2.52" maxSpeed="1.44" waitingTime="0.00"/>
    </personinfo>
    <tripinfo id="D3_1.0" depart="15.30" departLane="140483224#1_2" departPos="5.10" departPosLat="0.00" departSpeed="27.91" departDelay="0.00" arrival="59.80" arrivalLane="-440471861#0_2" arrivalPos="31.52" arrivalPosLat="0.00" arrivalSpeed="27.80" duration="44.50" routeLength="1067.97" waitingTime="0.00" waitingCount="0" stopTime="0.00" timeLoss="4.68" rerouteNo="1" devices="tripinfo_D3_1.0 routing_D3_1.0" vType="car" speedFactor="1.00" vaporized=""/>
    <tripinfo id="A2_1.0" depart="8.90" departLane="-793339796#2_1" departPos="2.30" departPosLat="0.00" departSpeed="27.90" departDelay="0.00" arrival="72.30" arrivalLane="-440471861#0_1" arrivalPos="31.52" arrivalPosLat="0.00" arrivalSpeed="27.76" duration="63.40" routeLength="1084.07" waitingTime="16.70" waitingCount="2" stopTime="0.00" timeLoss="24.45" rerouteNo="1" devices="tripinfo_A2_1.0 routing_A2_1.0" vType="motorcycle" speedFactor="1.00" vaporized=""/>
    <tripinfo id="A2_1.1" depart="16.40" departLane="-793339796#2_1" departPos="5.10" departPosLat="0.00" departSpeed="26.58" departDelay="0.00" arrival="76.80" arrivalLane="-440471861#0_2" arrivalPos="31.52" arrivalPosLat="0.00" arrivalSpeed="26.51" duration="60.40" routeLength="1081.27" waitingTime="9.00" waitingCount="1" stopTime="0.00" timeLoss="19.66" rerouteNo="1" devices="tripinfo_A2_1.1 routing_A2_1.1" vType="car" speedFactor="0.96" vaporized=""/>
    <tripinfo id="D1_1.0" depart="1.20" departLane="140483224#1_1" departPos="5.10" departPosLat="0.00" departSpeed="23.74" departDelay="0.00" arrival="94.30" arrivalLane="-793339796#2_2" arrivalPos="82.50" arrivalPosLat="0.00" arrivalSpeed="23.69" duration="93.10" routeLength="1648.38" waitingTime="3.70" waitingCount="1" stopTime="0.00" timeLoss="20.82" rerouteNo="1" devices="tripinfo_D1_1.0 routing_D1_1.0" vType="car" speedFactor="0.85" vaporized=""/>
    <personinfo id="pf_2.1" depart="45.00" type="ped" speedFactor="1.00" duration="55.80" waitingTime="31.20" timeLoss="33.64" traveltime="55.80">
        <walk depart="45.00" departPos="15.09" arrival="100.80" arrivalPos="3.44" duration="55.80" routeLength="30.72" timeLoss="33.64" maxSpeed="1.39" waitingTime="31.20"/>
    </personinfo>
    <tripinfo id="C1_1.0" depart="35.30" departLane="440471861#0_1" departPos="5.10" departPosLat="0.00" departSpeed="28.06" departDelay="0.00" arrival="116.10" arrivalLane="-793339796#2_1" arrivalPos="82.50" arrivalPosLat="-0.00" arrivalSpeed="28.02" duration="80.80" routeLength="1653.99" waitingTime="2.50" waitingCount="1" stopTime="0.00" timeLoss="20.75" rerouteNo="1" devices="tripinfo_C1_1.0 routing_C1_1.0" vType="car" speedFactor="1.01" vaporized=""/>
    <tripinfo id="C3_1.0" depart="22.80" departLane="440471861#0_1" departPos="8.10" departPosLat="0.00" departSpeed="27.78" departDelay="0.00" arrival="117.80" arrivalLane="-140483224#1_1" arrivalPos="64.04" arrivalPosLat="-0.00" arrivalSpeed="27.77" duration="95.00" routeLength="1049.78" waitingTime="29.40" waitingCount="2" stopTime="0.00" timeLoss="55.80" rerouteNo="1" devices="tripinfo_C3_1.0 routing_C3_1.0" vType="jeep" speedFactor="1.00" vaporized=""/>
    <personinfo id="pf_4.0" depart="0.00" type="ped" speedFactor="0.95" duration="124.50" waitingTime="0.00" timeLoss="12.20" traveltime="124.50">
        <walk depart="0.00" departPos="25.00" arrival="60.60" arrivalPos="29.11" duration="60.60" routeLength="72.15" timeLoss="5.98" maxSpeed="1.32" waitingTime="0.00"/>
        <walk depart="60.60" departPos="29.11" arrival="124.50" arrivalPos="29.05" duration="63.90" routeLength="76.20" timeLoss="6.22" maxSpeed="1.32" waitingTime="0.00"/>
    </personinfo>
    <tripinfo id="C2_1.0" depart="40.30" departLane="440471861#0_2" departPos="2.30" departPosLat="0.00" departSpeed="27.09" departDelay="0.00" arrival="133.80" arrivalLane="-145894807#0_1" arrivalPos="260.95" arrivalPosLat="0.00" arrivalSpeed="8.08" duration="93.50" routeLength="1084.86" waitingTime="0.00" waitingCount="0" stopTime="0.00" timeLoss="5.90" rerouteNo="1" devices="tripinfo_C2_1.0 routing_C2_1.0" vType="tricycle" speedFactor="0.98" vaporized=""/>
    <personinfo id="pf_2.2" depart="90.00" type="ped" speedFactor="1.02" duration="64.90" waitingTime="40.60" timeLoss="43.15" traveltime="64.90">
        <walk depart="90.00" departPos="15.09" arrival="154.90" arrivalPos="3.44" duration="64.90" routeLength="30.72" timeLoss="43.15" maxSpeed="1.41" waitingTime="40.60"/>
    </personinfo>
    <personinfo id="pf_2.3" depart="135.00" type="ped" speedFactor="0.97" duration="25.50" waitingTime="0.00" timeLoss="2.63" traveltime="25.50">
        <walk depart="135.00" departPos="15.09" arrival="160.50" arrivalPos="3.44" duration="25.50" routeLength="30.72" timeLoss="2.63" maxSpeed="1.34" waitingTime="0.00"/>
    </personinfo>
    <personinfo id="pf_4.1" depart="45.00" type="ped" speedFactor="1.01" duration="118.70" waitingTime="1.70" timeLoss="13.25" traveltime="118.70">
        <walk depart="45.00" departPos="25.00" arrival="101.80" arrivalPos="29.11" duration="56.80" routeLength="72.15" timeLoss="5.51" maxSpeed="1.41" waitingTime="0.00"/>
        <walk depart="101.80" departPos="29.11" arrival="163.70" arrivalPos="29.05" duration="61.90" routeLength="76.20" timeLoss="7.74" maxSpeed="1.41" waitingTime="1.70"/>
    </personinfo>
    <tripinfo id="D1_1.1" depart="74.50" departLane="140483224#1_1" departPos="8.10" departPosLat="0.00" departSpeed="27.78" departDelay="0.00" arrival="165.60" arrivalLane="-793339796#2_2" arrivalPos="82.50" arrivalPosLat="0.00" arrivalSpeed="24.44" duration="91.10" routeLength="1645.38" waitingTime="0.00" waitingCount="0" stopTime="0.00" timeLoss="29.54" rerouteNo="1" devices="tripinfo_D1_1.1 routing_D1_1.1" vType="jeep" speedFactor="1.00" vaporized=""/>
    <tripinfo id="C1_1.1" depart="63.70" departLane="440471861#0_1" departPos="12.10" departPosLat="0.00" departSpeed="27.78" departDelay="0.00" arrival="169.60" arrivalLane="-793339796#2_2" arrivalPos="82.50" arrivalPosLat="0.00" arrivalSpeed="24.42" duration="105.90" routeLength="1646.99" waitingTime="9.20" waitingCount="1" stopTime="0.00" timeLoss="45.57" rerouteNo="1" devices="tripinfo_C1_1.1 routing_C1_1.1" vType="bus" speedFactor="1.00" vaporized=""/>
    <tripinfo id="C3_1.1" depart="87.10" departLane="440471861#0_1" departPos="12.10" departPosLat="0.00" departSpeed="27.78" departDelay="0.00" arrival="170.20" arrivalLane="-140483224#1_2" arrivalPos="64.04" arrivalPosLat="0.00" arrivalSpeed="27.73" duration="83.10" routeLength="1045.78" waitingTime="10.80" waitingCount="2" stopTime="0.00" timeLoss="44.05" rerouteNo="1" devices="tripinfo_C3_1.1 routing_C3_1.1" vType="bus" speedFactor="1.00" vaporized=""/>
    <tripinfo id="D1_1.2" depart="92.30" departLane="140483224#1_1" departPos="5.10" departPosLat="0.00" departSpeed="26.79" departDelay="0.00" arrival="171.20" arrivalLane="-793339796#2_2" arrivalPos="82.50" arrivalPosLat="0.00" arrivalSpeed="26.76" duration="78.90" routeLength="1648.38" waitingTime="0.00" waitingCount="0" stopTime="0.00" timeLoss="14.97" rerouteNo="1" devices="tripinfo_D1_1.2 routing_D1_1.2" vType="car" speedFactor="0.96" vaporized=""/>
    <tripinfo id="A3_1.0" depart="138.80" departLane="-793339796#2_2" departPos="5.10" departPosLat="0.00" departSpeed="26.39" departDelay="11.70" arrival="185.70" arrivalLane="-140483224#1_2" arrivalPos="64.04" arrivalPosLat="0.00" arrivalSpeed="26.31" duration="46.90" routeLength="1080.94" waitingTime="0.00" waitingCount="0" stopTime="0.00" timeLoss="4.34" rerouteNo="1" devices="tripinfo_A3_1.0 routing_A3_1.0" vType="car" speedFactor="0.95" vaporized=""/>
    <tripinfo id="A2_1.2" depart="138.80" departLane="-793339796#2_1" departPos="8.10" departPosLat="0.00" departSpeed="27.78" departDelay="13.00" arrival="186.50" arrivalLane="-440471861#0_1" arrivalPos="31.52" arrivalPosLat="0.00" arrivalSpeed="27.73" duration="47.70" routeLength="1078.27" waitingTime="0.00" waitingCount="0" stopTime="0.00" timeLoss="8.88" rerouteNo="1" devices="tripinfo_A2_1.2 routing_A2_1.2" vType="jeep" speedFactor="1.00" vaporized=""/>
    <tripinfo id="A2_1.3" depart="139.10" departLane="-793339796#2_1" departPos="5.10" departPosLat="0.00" departSpeed="23.74" departDelay="9.20" arrival="188.30" arrivalLane="-440471861#0_1" arrivalPos="31.52" arrivalPosLat="0.00" arrivalSpeed="26.07" duration="49.20" routeLength="1081.27" waitingTime="0.00" waitingCount="0" stopTime="0.00" timeLoss="7.73" rerouteNo="1" devices="tripinfo_A2_1.3 routing_A2_1.3" vType="car" speedFactor="0.94" vaporized=""/>
    <tripinfo id="C1_1.2" depart="82.10" departLane="440471861#0_1" departPos="8.10" departPosLat="0.00" departSpeed="27.78" departDelay="0.00" arrival="189.80" arrivalLane="-793339796#2_2" arrivalPos="82.50" arrivalPosLat="0.00" arrivalSpeed="24.52" duration="107.70" routeLength="1650.99" waitingTime="14.40" waitingCount="1" stopTime="0.00" timeLoss="47.17" rerouteNo="1" devices="tripinfo_C1_1.2 routing_C1_1.2" vType="jeep" speedFactor="1.00" vaporized=""/>
    <tripinfo id="B2_1.0" depart="62.00" departLane="-361257727#0_1" departPos="5.10" departPosLat="0.00" departSpeed="7.79" departDelay="0.00" arrival="196.90" arrivalLane="-440471861#0_1" arrivalPos="31.52" arrivalPosLat="-0.00" arrivalSpeed="25.88" duration="134.90" routeLength="1397.68" waitingTime="0.30" waitingCount="1" stopTime="0.00" timeLoss="9.70" rerouteNo="1" devices="tripinfo_B2_1.0 routing_B2_1.0" vType="car" speedFactor="0.93" vaporized=""/>
    <personinfo id="pf_2.4" depart="180.00" type="ped" speedFactor="1.15" duration="24.10" waitingTime="2.50" timeLoss="4.83" traveltime="24.10">
        <walk depart="180.00" departPos="15.09" arrival="204.10" arrivalPos="3.44" duration="24.10" routeLength="30.72" timeLoss="4.83" maxSpeed="1.59" waitingTime="2.50"/>
    </personinfo>
    <tripinfo id="D2_1.0" depart="93.70" departLane="140483224#1_2" departPos="7.20" departPosLat="0.00" departSpeed="28.45" departDelay="0.00" arrival="210.10" arrivalLane="-145894807#0_1" arrivalPos="260.95" arrivalPosLat="-0.00" arrivalSpeed="8.53" duration="116.40" routeLength="1090.66" waitingTime="22.00" waitingCount="1" stopTime="0.00" timeLoss="33.20" rerouteNo="1" devices="tripinfo_D2_1.0 routing_D2_1.0" vType="truck" speedFactor="1.02" vaporized=""/>
    <personinfo id="pf_4.2" depart="90.00" type="ped" speedFactor="0.97" duration="128.30" waitingTime="5.80" timeLoss="18.18" traveltime="128.30">
        <walk depart="90.00" departPos="25.00" arrival="149.50" arrivalPos="29.11" duration="59.50" routeLength="72.15" timeLoss="5.94" maxSpeed="1.35" waitingTime="0.00"/>
        <walk depart="149.50" departPos="29.11" arrival="218.30" arrivalPos="29.05" duration="68.80" routeLength="76.20" timeLoss="12.23" maxSpeed="1.35" waitingTime="5.80"/>
    </personinfo>
    <tripinfo id="D1_1.3" depart="117.10" departLane="140483224#1_1" departPos="7.20" departPosLat="0.00" departSpeed="25.89" departDelay="0.00" arrival="220.60" arrivalLane="-793339796#2_2" arrivalPos="82.50" arrivalPosLat="0.00" arrivalSpeed="25.19" duration="103.50" routeLength="1646.28" waitingTime="0.30" waitingCount="1" stopTime="0.00" timeLoss="37.38" rerouteNo="1" devices="tripinfo_D1_1.3 routing_D1_1.3" vType="truck" speedFactor="0.93" vaporized=""/>
    <tripinfo id="C3_1.2" depart="156.50" departLane="440471861#0_1" departPos="8.10" departPosLat="0.00" departSpeed="27.78" departDelay="0.00" arrival="221.20" arrivalLane="-140483224#1_2" arrivalPos="64.04" arrivalPosLat="0.00" arrivalSpeed="27.74" duration="64.70" routeLength="1049.78" waitingTime="0.70" waitingCount="1" stopTime="0.00" timeLoss="25.53" rerouteNo="1" devices="tripinfo_C3_1.2 routing_C3_1.2" vType="jeep" speedFactor="1.00" vaporized=""/>
    <tripinfo id="D2_1.1" depart="134.80" departLane="140483224#1_1" departPos="8.10" departPosLat="0.00" departSpeed="27.78" departDelay="0.00" arrival="223.60" arrivalLane="-145894807#0_1" arrivalPos="260.95" arrivalPosLat="0.00" arrivalSpeed="8.32" duration="88.80" routeLength="1089.76" waitingTime="0.00" waitingCount="0" stopTime="0.00" timeLoss="3.50" rerouteNo="1" devices="tripinfo_D2_1.1 routing_D2_1.1" vType="jeep" speedFactor="1.00" vaporized=""/>
    <tripinfo id="B1_1.0" depart="75.60" departLane="-361257727#0_1" departPos="5.10" departPosLat="0.00" departSpeed="8.25" departDelay="0.00" arrival="226.50" arrivalLane="-793339796#2_2" arrivalPos="82.50" arrivalPosLat="0.00" arrivalSpeed="27.47" duration="150.90" routeLength="1915.44" waitingTime="0.00" waitingCount="0" stopTime="0.00" timeLoss="14.99" rerouteNo="1" devices="tripinfo_B1_1.0 routing_B1_1.0" vType="car" speedFactor="0.99" vaporized=""/>
    <tripinfo id="A3_1.1" depart="193.40" departLane="-793339796#2_1" departPos="2.30" departPosLat="0.00" departSpeed="28.47" departDelay="0.00" arrival="237.30" arrivalLane="-140483224#1_2" arrivalPos="64.04" arrivalPosLat="0.00" arrivalSpeed="28.41" duration="43.90" routeLength="1083.74" waitingTime="0.00" waitingCount="0" stopTime="0.00" timeLoss="4.40" rerouteNo="1" devices="tripinfo_A3_1.1 routing_A3_1.1" vType="tricycle" speedFactor="1.02" vaporized=""/>
    <tripinfo id="C1_1.3" depart="142.00" departLane="440471861#0_1" departPos="8.10" departPosLat="0.00" departSpeed="27.78" departDelay="0.00" arrival="241.40" arrivalLane="-793339796#2_2" arrivalPos="82.50" arrivalPosLat="0.00" arrivalSpeed="24.43" duration="99.40" routeLength="1650.99" waitingTime="5.50" waitingCount="1" stopTime="0.00" timeLoss="38.85" rerouteNo="1" devices="tripinfo_C1_1.3 routing_C1_1.3" vType="jeep" speedFactor="1.00" vaporized=""/>
    <personinfo id="pf_4.3" depart="135.00" type="ped" speedFactor="0.99" duration="120.00" waitingTime="0.00" timeLoss="12.08" traveltime="120.00">
        <walk depart="135.00" departPos="25.00" arrival="193.30" arrivalPos="29.11" duration="58.30" routeLength="72.15" timeLoss="5.81" maxSpeed="1.37" waitingTime="0.00"/>
        <walk depart="193.30" departPos="29.11" arrival="255.00" arrivalPos="29.05" duration="61.70" routeLength="76.20" timeLoss="6.27" maxSpeed="1.37" waitingTime="0.00"/>
    </personinfo>
    <tripinfo id="A1_1.0" depart="157.90" departLane="-793339796#2_1" departPos="2.30" departPosLat="0.00" departSpeed="26.36" departDelay="0.00" arrival="255.10" arrivalLane="-145894807#0_1" arrivalPos="260.95" arrivalPosLat="0.00" arrivalSpeed="7.63" duration="97.20" routeLength="1059.52" waitingTime="0.00" waitingCount="0" stopTime="0.00" timeLoss="2.75" rerouteNo="1" devices="tripinfo_A1_1.0 routing_A1_1.0" vType="motorcycle" speedFactor="0.95" vaporized=""/>
    <tripinfo id="B2_1.1" depart="129.20" departLane="-361257727#0_1" departPos="8.10" departPosLat="0.00" departSpeed="8.33" departDelay="0.00" arrival="256.80" arrivalLane="-440471861#0_1" arrivalPos="31.52" arrivalPosLat="-0.00" arrivalSpeed="27.76" duration="127.60" routeLength="1394.68" waitingTime="0.00" waitingCount="0" stopTime="0.00" timeLoss="11.01" rerouteNo="1" devices="tripinfo_B2_1.1 routing_B2_1.1" vType="jeep" speedFactor="1.00" vaporized=""/>
    <personinfo id="pf_2.5" depart="225.00" type="ped" speedFactor="0.98" duration="32.70" waitingTime="7.40" timeLoss="10.03" traveltime="32.70">
        <walk depart="225.00" departPos="15.09" arrival="257.70" arrivalPos="3.44" duration="32.70" routeLength="30.72" timeLoss="10.03" maxSpeed="1.36" waitingTime="7.40"/>
    </personinfo>
    <tripinfo id="C3_1.3" depart="208.00" departLane="440471861#0_1" departPos="2.30" departPosLat="0.00" departSpeed="26.97" departDelay="0.00" arrival="268.40" arrivalLane="-140483224#1_2" arrivalPos="64.04" arrivalPosLat="0.00" arrivalSpeed="26.91" duration="60.40" routeLength="1055.58" waitingTime="4.60" waitingCount="2" stopTime="0.00" timeLoss="19.90" rerouteNo="1" devices="tripinfo_C3_1.3 routing_C3_1.3" vType="tricycle" speedFactor="0.97" vaporized=""/>
    <tripinfo id="D2_1.2" depart="185.20" departLane="140483224#1_1" departPos="5.10" departPosLat="0.00" departSpeed="28.21" departDelay="0.00" arrival="271.00" arrivalLane="-145894807#0_1" arrivalPos="260.95" arrivalPosLat="0.00" arrivalSpeed="8.36" duration="85.80" routeLength="1092.76" waitingTime="0.00" waitingCount="0" stopTime="0.00" timeLoss="1.73" rerouteNo="1" devices="tripinfo_D2_1.2 routing_D2_1.2" vType="car" speedFactor="1.02" vaporized=""/>
    <tripinfo id="D3_1.1" depart="201.70" departLane="140483224#1_2" departPos="5.10" departPosLat="0.00" departSpeed="22.64" departDelay="0.00" arrival="281.50" arrivalLane="-440471861#0_2" arrivalPos="31.52" arrivalPosLat="0.00" arrivalSpeed="22.56" duration="79.80" routeLength="1067.97" waitingTime="23.70" waitingCount="1" stopTime="0.00" timeLoss="30.67" rerouteNo="1" devices="tripinfo_D3_1.1 routing_D3_1.1" vType="car" speedFactor="0.82" vaporized=""/>
    <tripinfo id="D3_1.2" depart="206.80" departLane="140483224#1_2" departPos="5.10" departPosLat="0.00" departSpeed="29.15" departDelay="0.00" arrival="282.70" arrivalLane="-440471861#0_2" arrivalPos="31.52" arrivalPosLat="0.00" arrivalSpeed="24.98" duration="75.90" routeLength="1067.97" waitingTime="22.50" waitingCount="1" stopTime="0.00" timeLoss="37.80" rerouteNo="1" devices="tripinfo_D3_1.2 routing_D3_1.2" vType="car" speedFactor="1.05" vaporized=""/>
    <tripinfo id="A3_1.2" depart="214.60" departLane="-793339796#2_2" departPos="5.10" departPosLat="0.00" departSpeed="27.11" departDelay="0.00" arrival="288.40" arrivalLane="-140483224#1_2" arrivalPos="64.04" arrivalPosLat="0.00" arrivalSpeed="27.00" duration="73.80" routeLength="1080.94" waitingTime="24.10" waitingCount="1" stopTime="0.00" timeLoss="32.42" rerouteNo="1" devices="tripinfo_A3_1.2 routing_A3_1.2" vType="car" speedFactor="0.98" vaporized=""/>
    <tripinfo id="A3_1.3" depart="222.10" departLane="-793339796#2_1" departPos="2.30" departPosLat="0.00" departSpeed="24.80" departDelay="0.00" arrival="290.90" arrivalLane="-140483224#1_2" arrivalPos="64.04" arrivalPosLat="0.00" arrivalSpeed="24.67" duration="68.80" routeLength="1083.74" waitingTime="8.80" waitingCount="2" stopTime="0.00" timeLoss="23.34" rerouteNo="1" devices="tripinfo_A3_1.3 routing_A3_1.3" vType="motorcycle" speedFactor="0.89" vaporized=""/>
    <personinfo id="pf_4.4" depart="180.00" type="ped" speedFactor="1.02" duration="116.80" waitingTime="0.90" timeLoss="12.49" traveltime="116.80">
        <walk depart="180.00" departPos="25.00" arrival="237.20" arrivalPos="29.11" duration="57.20" routeLength="72.15" timeLoss="6.47" maxSpeed="1.42" waitingTime="0.90"/>
        <walk depart="237.20" departPos="29.11" arrival="296.80" arrivalPos="29.05" duration="59.60" routeLength="76.20" timeLoss="6.02" maxSpeed="1.42" waitingTime="0.00"/>
    </personinfo>
    <tripinfo id="B2_1.2" depart="150.30" departLane="-361257727#0_1" departPos="2.30" departPosLat="0.00" departSpeed="7.32" departDelay="0.00" arrival="301.70" arrivalLane="-440471861#0_1" arrivalPos="31.52" arrivalPosLat="-0.00" arrivalSpeed="24.34" duration="151.40" routeLength="1400.48" waitingTime="8.20" waitingCount="1" stopTime="0.00" timeLoss="17.81" rerouteNo="1" devices="tripinfo_B2_1.2 routing_B2_1.2" vType="tricycle" speedFactor="0.88" vaporized=""/>
    <personinfo id="pf_1.0" depart="0.00" type="ped" speedFactor="1.06" duration="307.50" waitingTime="72.00" timeLoss="95.80" traveltime="307.50">
        <walk depart="0.00" departPos="25.00" arrival="307.50" arrivalPos="3.44" duration="307.50" routeLength="311.67" timeLoss="95.80" maxSpeed="1.47" waitingTime="72.00"/>
    </personinfo>
    <personinfo id="pf_2.6" depart="270.00" type="ped" speedFactor="1.00" duration="38.30" waitingTime="13.60" timeLoss="16.22" traveltime="38.30">
        <walk depart="270.00" departPos="15.09" arrival="308.30" arrivalPos="3.44" duration="38.30" routeLength="30.72" timeLoss="16.22" maxSpeed="1.39" waitingTime="13.60"/>
    </personinfo>
    <tripinfo id="D2_1.3" depart="223.20" departLane="140483224#1_1" departPos="2.30" departPosLat="0.00" departSpeed="26.42" departDelay="0.00" arrival="320.30" arrivalLane="-145894807#0_1" arrivalPos="260.95" arrivalPosLat="0.00" arrivalSpeed="7.76" duration="97.10" routeLength="1095.56" waitingTime="3.80" waitingCount="1" stopTime="0.00" timeLoss="7.31" rerouteNo="1" devices="tripinfo_D2_1.3 routing_D2_1.3" vType="motorcycle" speedFactor="0.95" vaporized=""/>
    <tripinfo id="D1_1.4" depart="236.00" departLane="140483224#1_1" departPos="7.20" departPosLat="0.00" departSpeed="26.48" departDelay="0.00" arrival="323.40" arrivalLane="-793339796#2_2" arrivalPos="82.50" arrivalPosLat="0.00" arrivalSpeed="25.36" duration="87.40" routeLength="1646.28" waitingTime="0.00" waitingCount="0" stopTime="0.00" timeLoss="22.80" rerouteNo="1" devices="tripinfo_D1_1.4 routing_D1_1.4" vType="truck" speedFactor="0.95" vaporized=""/>
    <tripinfo id="C1_1.4" depart="227.40" departLane="440471861#0_1" departPos="2.30" departPosLat="0.00" departSpeed="29.51" departDelay="0.00" arrival="324.60" arrivalLane="-793339796#2_2" arrivalPos="82.50" arrivalPosLat="0.00" arrivalSpeed="29.32" duration="97.20" routeLength="1656.79" waitingTime="25.10" waitingCount="1" stopTime="0.00" timeLoss="39.96" rerouteNo="1" devices="tripinfo_C1_1.4 routing_C1_1.4" vType="motorcycle" speedFactor="1.06" vaporized=""/>
    <tripinfo id="D3_1.3" depart="212.70" departLane="140483224#1_2" departPos="8.10" departPosLat="0.00" departSpeed="27.78" departDelay="0.00" arrival="336.80" arrivalLane="-440471861#0_2" arrivalPos="31.52" arrivalPosLat="0.00" arrivalSpeed="27.76" duration="124.10" routeLength="1064.97" waitingTime="59.00" waitingCount="2" stopTime="0.00" timeLoss="84.22" rerouteNo="1" devices="tripinfo_D3_1.3 routing_D3_1.3" vType="jeep" speedFactor="1.00" vaporized=""/>
    <personinfo id="pf_4.5" depart="225.00" type="ped" speedFactor="1.01" duration="117.30" waitingTime="0.00" timeLoss="11.62" traveltime="117.30">
        <walk depart="225.00" departPos="25.00" arrival="281.80" arrivalPos="29.11" duration="56.80" routeLength="72.15" timeLoss="5.40" maxSpeed="1.40" waitingTime="0.00"/>
        <walk depart="281.80" departPos="29.11" arrival="342.30" arrivalPos="29.05" duration="60.50" routeLength="76.20" timeLoss="6.22" maxSpeed="1.40" waitingTime="0.00"/>
    </personinfo>
    <tripinfo id="A3_1.4" depart="229.30" departLane="-793339796#2_2" departPos="8.10" departPosLat="0.00" departSpeed="27.78" departDelay="1.70" arrival="347.20" arrivalLane="-140483224#1_2" arrivalPos="64.04" arrivalPosLat="0.00" arrivalSpeed="27.77" duration="117.90" routeLength="1077.94" waitingTime="46.50" waitingCount="3" stopTime="0.00" timeLoss="77.59" rerouteNo="1" devices="tripinfo_A3_1.4 routing_A3_1.4" vType="jeep" speedFactor="1.00" vaporized=""/>
    <tripinfo id="A1_1.1" depart="256.90" departLane="-793339796#2_1" departPos="8.10" departPosLat="0.00" departSpeed="27.78" departDelay="5.60" arrival="350.90" arrivalLane="-145894807#0_1" arrivalPos="260.95" arrivalPosLat="0.00" arrivalSpeed="8.29" duration="94.00" routeLength="1053.72" waitingTime="0.00" waitingCount="0" stopTime="0.00" timeLoss="4.59" rerouteNo="1" devices="tripinfo_A1_1.1 routing_A1_1.1" vType="jeep" speedFactor="1.00" vaporized=""/>
    <personinfo id="pf_2.7" depart="315.00" type="ped" speedFactor="1.04" duration="43.70" waitingTime="19.90" timeLoss="22.49" traveltime="43.70">
        <walk depart="315.00" departPos="15.09" arrival="358.70" arrivalPos="3.44" duration="43.70" routeLength="30.72" timeLoss="22.49" maxSpeed="1.45" waitingTime="19.90"/>
    </personinfo>
    <personinfo id="pf_1.1" depart="45.00" type="ped" speedFactor="0.94" duration="315.40" waitingTime="49.30" timeLoss="76.24" traveltime="315.40">
        <walk depart="45.00" departPos="25.00" arrival="360.40" arrivalPos="3.44" duration="315.40" routeLength="311.67" timeLoss="76.24" maxSpeed="1.30" waitingTime="49.30"/>
    </personinfo>
    <tripinfo id="C3_1.4" depart="303.70" departLane="440471861#0_1" departPos="5.10" departPosLat="0.00" departSpeed="26.86" departDelay="0.00" arrival="368.50" arrivalLane="-140483224#1_2" arrivalPos="64.04" arrivalPosLat="0.00" arrivalSpeed="26.83" duration="64.80" routeLength="1052.78" waitingTime="6.60" waitingCount="2" stopTime="0.00" timeLoss="24.21" rerouteNo="1" devices="tripinfo_C3_1.4 routing_C3_1.4" vType="car" speedFactor="0.97" vaporized=""/>
    <tripinfo id="D1_1.5" depart="315.20" departLane="140483224#1_1" departPos="5.10" departPosLat="0.00" departSpeed="31.67" departDelay="0.00" arrival="384.20" arrivalLane="-793339796#2_2" arrivalPos="82.50" arrivalPosLat="0.00" arrivalSpeed="31.57" duration="69.00" routeLength="1648.38" waitingTime="0.00" waitingCount="0" stopTime="0.00" timeLoss="14.91" rerouteNo="1" devices="tripinfo_D1_1.5 routing_D1_1.5" vType="car" speedFactor="1.14" vaporized=""/>
    <tripinfo id="A2_1.4" depart="317.20" departLane="-793339796#2_2" departPos="5.10" departPosLat="0.00" departSpeed="28.18" departDelay="4.30" arrival="390.60" arrivalLane="-440471861#0_1" arrivalPos="31.52" arrivalPosLat="-0.00" arrivalSpeed="28.10" duration="73.40" routeLength="1081.27" waitingTime="20.20" waitingCount="1" stopTime="0.00" timeLoss="34.98" rerouteNo="1" devices="tripinfo_A2_1.4 routing_A2_1.4" vType="car" speedFactor="1.01" vaporized=""/>
    <personinfo id="pf_4.6" depart="270.00" type="ped" speedFactor="0.97" duration="122.10" waitingTime="0.00" timeLoss="12.28" traveltime="122.10">
        <walk depart="270.00" departPos="25.00" arrival="329.60" arrivalPos="29.11" duration="59.60" routeLength="72.15" timeLoss="6.19" maxSpeed="1.35" waitingTime="0.00"/>
        <walk depart="329.60" departPos="29.11" arrival="392.10" arrivalPos="29.05" duration="62.50" routeLength="76.20" timeLoss="6.09" maxSpeed="1.35" waitingTime="0.00"/>
    </personinfo>
    <tripinfo id="A3_1.5" depart="256.90" departLane="-793339796#2_2" departPos="5.10" departPosLat="0.00" departSpeed="23.93" departDelay="1.50" arrival="393.20" arrivalLane="-140483224#1_2" arrivalPos="64.04" arrivalPosLat="0.00" arrivalSpeed="23.87" duration="136.30" routeLength="1080.94" waitingTime="72.90" waitingCount="2" stopTime="0.00" timeLoss="89.34" rerouteNo="1" devices="tripinfo_A3_1.5 routing_A3_1.5" vType="car" speedFactor="0.86" vaporized=""/>
    <tripinfo id="C1_1.5" depart="294.40" departLane="440471861#0_1" departPos="8.10" departPosLat="0.00" departSpeed="27.78" departDelay="0.00" arrival="395.40" arrivalLane="-793339796#2_2" arrivalPos="82.50" arrivalPosLat="0.00" arrivalSpeed="24.56" duration="101.00" routeLength="1650.99" waitingTime="6.30" waitingCount="1" stopTime="0.00" timeLoss="40.46" rerouteNo="1" devices="tripinfo_C1_1.5 routing_C1_1.5" vType="jeep" speedFactor="1.00" vaporized=""/>
    <tripinfo id="A3_1.6" depart="282.20" departLane="-793339796#2_2" departPos="8.10" departPosLat="0.00" departSpeed="27.78" departDelay="0.00" arrival="399.40" arrivalLane="-140483224#1_2" arrivalPos="64.04" arrivalPosLat="0.00" arrivalSpeed="27.72" duration="117.20" routeLength="1077.94" waitingTime="45.90" waitingCount="2" stopTime="0.00" timeLoss="76.88" rerouteNo="1" devices="tripinfo_A3_1.6 routing_A3_1.6" vType="jeep" speedFactor="1.00" vaporized=""/>
    <tripinfo id="A1_1.2" depart="317.20" departLane="-793339796#2_1" departPos="7.20" departPosLat="0.00" departSpeed="29.37" departDelay="8.00" arrival="406.50" arrivalLane="-145894807#0_1" arrivalPos="260.95" arrivalPosLat="0.00" arrivalSpeed="8.78" duration="89.30" routeLength="1054.62" waitingTime="0.00" waitingCount="0" stopTime="0.00" timeLoss="4.63" rerouteNo="1" devices="tripinfo_A1_1.2 routing_A1_1.2" vType="truck" speedFactor="1.06" vaporized=""/>
    <tripinfo id="C2_1.1" depart="322.20" departLane="440471861#0_2" departPos="5.10" departPosLat="0.00" departSpeed="28.15" departDelay="0.00" arrival="411.80" arrivalLane="-145894807#0_1" arrivalPos="260.95" arrivalPosLat="0.00" arrivalSpeed="8.37" duration="89.60" routeLength="1082.06" waitingTime="0.60" waitingCount="1" stopTime="0.00" timeLoss="5.44" rerouteNo="1" devices="tripinfo_C2_1.1 routing_C2_1.1" vType="car" speedFactor="1.01" vaporized=""/>
    <personinfo id="pf_1.3" depart="135.00" type="ped" speedFactor="1.08" duration="279.20" waitingTime="49.00" timeLoss="71.94" traveltime="279.20">