<?xml version="1.0" encoding="UTF-8"?>

<!-- generated on 2026-02-13 11:10:29 by Eclipse SUMO sumo Version 1.24.0
<sumoConfiguration xmlns:xsi="http://www.w3.org/2001/XMLSchema-instance" xsi:noNamespaceSchemaLocation="http://sumo.dlr.de/xsd/sumoConfiguration.xsd">

    <input>
        <net-file value="Olivarez_traci/network/map1.net.xml"/>
        <route-files value="Olivarez_traci/demand/flows_traffic_jam.rou.xml"/>
        <additional-files value="Olivarez_traci/additionals/map.poly.xml,Olivarez_traci/ additionals/detectors.add.xml"/>
    </input>

    <output>
        <tripinfo-output value="Olivarez_traci\output_DDPG\jamGlobal_SD_DDPG_trips.xml"/>
        <statistic-output value="Olivarez_traci\output_DDPG\jamGlobal_SD_DDPG_stats.xml"/>
    </output>

    <time>
        <begin value="0"/>
        <end value="10800"/>
        <step-length value="0.1"/>
    </time>

    <processing>
        <lateral-resolution value="0.1"/>
        <collision.action value="none"/>
        <collision.check-junctions value="false"/>
        <collision.mingap-factor value="0"/>
    </processing>

    <report>
        <no-warnings value="true"/>
    </report>

    <traci_server>
        <remote-port value="63677"/>
    </traci_server>

    <gui_only>
        <delay value="0"/>
    </gui_only>

</sumoConfiguration>
-->

<tripinfos xmlns:xsi="http://www.w3.org/2001/XMLSchema-instance" xsi:noNamespaceSchemaLocation="http://sumo.dlr.de/xsd/tripinfo_file.xsd">
    <personinfo id="pf_2.0" depart="0.00" type="ped" speedFactor="0.83" duration="29.90" waitingTime="0.00" timeLoss="3.11" traveltime="29.90">
        <walk depart="0.00" departPos="15.09" arrival="29.90" arrivalPos="3.44" duration="29.90" routeLength="30.72" timeLoss="3.11" maxSpeed="1.15" waitingTime="0.00"/>
    </personinfo>
    <personinfo id="pf_2.1" depart="15.00" type="ped" speedFactor="0.87" duration="28.10" waitingTime="0.00" timeLoss="2.75" traveltime="28.10">
        <walk depart="15.00" departPos="15.09" arrival="43.10" arrivalPos="3.44" duration="28.10" routeLength="30.72" timeLoss="2.75" maxSpeed="1.21" waitingTime="0.00"/>
    </personinfo>
    <tripinfo id="D3_1.0" depart="15.30" departLane="140483224#1_1" departPos="2.30" departPosLat="0.00" departSpeed="26.42" departDelay="0.00" arrival="61.40" arrivalLane="-440471861#0_2" arrivalPos="31.52" arrivalPosLat="0.00" arrivalSpeed="26.42" duration="46.10" routeLength="1070.77" waitingTime="0.00" waitingCount="0" stopTime="0.00" timeLoss="4.02" rerouteNo="1" devices="tripinfo_D3_1.0 routing_D3_1.0" vType="tricycle" speedFactor="0.95" vaporized=""/>
    <tripinfo id="A2_1.0" depart="3.00" departLane="-793339796#2_1" departPos="5.10" departPosLat="0.00" departSpeed="29.34" departDelay="0.00" arrival="71.10" arrivalLane="-440471861#0_1" arrivalPos="31.52" arrivalPosLat="0.00" arrivalSpeed="29.24" duration="68.10" routeLength="1081.27" waitingTime="14.50" waitingCount="2" stopTime="0.00" timeLoss="31.22" rerouteNo="1" devices="tripinfo_A2_1.0 routing_A2_1.0" vType="car" speedFactor="1.06" vaporized=""/>
    <tripinfo id="A2_1.2" depart="8.90" departLane="-793339796#2_2" departPos="5.10" departPosLat="0.00" departSpeed="27.37" departDelay="0.00" arrival="71.90" arrivalLane="-440471861#0_2" arrivalPos="31.52" arrivalPosLat="-0.36" arrivalSpeed="27.30" duration="63.00" routeLength="1081.27" waitingTime="7.60" waitingCount="2" stopTime="0.00" timeLoss="23.41" rerouteNo="1" devices="tripinfo_A2_1.2 routing_A2_1.2" vType="car" speedFactor="0.99" vaporized=""/>
    <tripinfo id="A2_1.1" depart="6.90" departLane="-793339796#2_1" departPos="5.10" departPosLat="0.00" departSpeed="27.02" departDelay="0.00" arrival="73.30" arrivalLane="-440471861#0_1" arrivalPos="31.52" arrivalPosLat="0.00" arrivalSpeed="27.00" duration="66.40" routeLength="1081.27" waitingTime="3.10" waitingCount="1" stopTime="0.00" timeLoss="26.32" rerouteNo="1" devices="tripinfo_A2_1.1 routing_A2_1.1" vType="car" speedFactor="0.97" vaporized=""/>
    <tripinfo id="A3_1.0" depart="15.20" departLane="-793339796#2_2" departPos="8.10" departPosLat="0.00" departSpeed="27.78" departDelay="0.00" arrival="80.40" arrivalLane="-140483224#1_2" arrivalPos="64.04" arrivalPosLat="0.00" arrivalSpeed="27.73" duration="65.20" routeLength="1077.94" waitingTime="0.00" waitingCount="0" stopTime="0.00" timeLoss="24.82" rerouteNo="1" devices="tripinfo_A3_1.0 routing_A3_1.0" vType="jeep" speedFactor="1.00" vaporized=""/>
    <tripinfo id="A2_1.3" depart="16.40" departLane="-793339796#2_1" departPos="7.20" departPosLat="0.00" departSpeed="26.64" departDelay="0.00" arrival="81.10" arrivalLane="-440471861#0_2" arrivalPos="31.52" arrivalPosLat="0.00" arrivalSpeed="26.61" duration="64.70" routeLength="1079.17" waitingTime="0.00" waitingCount="0" stopTime="0.00" timeLoss="24.19" rerouteNo="1" devices="tripinfo_A2_1.3 routing_A2_1.3" vType="truck" speedFactor="0.96" vaporized=""/>
    <tripinfo id="A3_1.1" depart="31.00" departLane="-793339796#2_1" departPos="12.10" departPosLat="0.00" departSpeed="27.78" departDelay="0.00" arrival="82.70" arrivalLane="-140483224#1_2" arrivalPos="64.04" arrivalPosLat="0.00" arrivalSpeed="27.74" duration="51.70" routeLength="1073.94" waitingTime="0.00" waitingCount="0" stopTime="0.00" timeLoss="11.49" rerouteNo="1" devices="tripinfo_A3_1.1 routing_A3_1.1" vType="bus" speedFactor="1.00" vaporized=""/>
    <tripinfo id="D1_1.0" depart="1.20" departLane="140483224#1_1" departPos="5.10" departPosLat="0.00" departSpeed="24.93" departDelay="0.00" arrival="92.50" arrivalLane="-793339796#2_2" arrivalPos="82.50" arrivalPosLat="0.00" arrivalSpeed="24.81" duration="91.30" routeLength="1648.38" waitingTime="4.80" waitingCount="1" stopTime="0.00" timeLoss="22.54" rerouteNo="1" devices="tripinfo_D1_1.0 routing_D1_1.0" vType="car" speedFactor="0.90" vaporized=""/>
    <personinfo id="pf_2.4" depart="60.00" type="ped" speedFactor="1.13" duration="46.50" waitingTime="24.40" timeLoss="26.96" traveltime="46.50">
        <walk depart="60.00" departPos="15.09" arrival="106.50" arrivalPos="3.44" duration="46.50" routeLength="30.72" timeLoss="26.96" maxSpeed="1.57" waitingTime="24.40"/>
    </personinfo>
    <personinfo id="pf_4.0" depart="0.00" type="ped" speedFactor="1.11" duration="107.10" waitingTime="0.00" timeLoss="10.90" traveltime="107.10">
        <walk depart="0.00" departPos="25.00" arrival="52.00" arrivalPos="29.11" duration="52.00" routeLength="72.15" timeLoss="5.21" maxSpeed="1.54" waitingTime="0.00"/>
        <walk depart="52.00" departPos="29.11" arrival="107.10" arrivalPos="29.05" duration="55.10" routeLength="76.20" timeLoss="5.69" maxSpeed="1.54" waitingTime="0.00"/>
    </personinfo>
    <personinfo id="pf_2.3" depart="45.00" type="ped" speedFactor="0.95" duration="64.10" waitingTime="38.00" timeLoss="40.79" traveltime="64.10">
        <walk depart="45.00" departPos="15.09" arrival="109.10" arrivalPos="3.44" duration="64.10" routeLength="30.72" timeLoss="40.79" maxSpeed="1.32" waitingTime="38.00"/>
    </personinfo>
    <personinfo id="pf_2.5" depart="75.00" type="ped" speedFactor="0.93" duration="34.60" waitingTime="8.10" timeLoss="10.85" traveltime="34.60">
        <walk depart="75.00" departPos="15.09" arrival="109.60" arrivalPos="3.44" duration="34.60" routeLength="30.72" timeLoss="10.85" maxSpeed="1.29" waitingTime="8.10"/>
    </personinfo>
    <personinfo id="pf_2.2" depart="30.00" type="ped" speedFactor="0.92" duration="79.80" waitingTime="53.00" timeLoss="55.68" traveltime="79.80">
        <walk depart="30.00" departPos="15.09" arrival="109.80" arrivalPos="3.44" duration="79.80" routeLength="30.72" timeLoss="55.68" maxSpeed="1.27" waitingTime="53.00"/>
    </personinfo>
    <personinfo id="pf_2.6" depart="90.00" type="ped" speedFactor="1.18" duration="20.70" waitingTime="0.00" timeLoss="1.93" traveltime="20.70">
        <walk depart="90.00" departPos="15.09" arrival="110.70" arrivalPos="3.44" duration="20.70" routeLength="30.72" timeLoss="1.93" maxSpeed="1.64" waitingTime="0.00"/>
    </personinfo>
    <tripinfo id="C3_1.0" depart="6.90" departLane="440471861#0_1" departPos="2.30" departPosLat="0.00" departSpeed="21.32" departDelay="0.00" arrival="112.10" arrivalLane="-140483224#1_1" arrivalPos="64.04" arrivalPosLat="-0.00" arrivalSpeed="29.07" duration="105.20" routeLength="1055.58" waitingTime="56.40" waitingCount="2" stopTime="0.00" timeLoss="67.98" rerouteNo="1" devices="tripinfo_C3_1.0 routing_C3_1.0" vType="motorcycle" speedFactor="1.06" vaporized=""/>
    <tripinfo id="C1_1.0" depart="6.60" departLane="440471861#0_1" departPos="5.10" departPosLat="0.00" departSpeed="27.96" departDelay="0.00" arrival="124.00" arrivalLane="-793339796#2_1" arrivalPos="82.50" arrivalPosLat="-0.00" arrivalSpeed="27.92" duration="117.40" routeLength="1653.99" waitingTime="39.10" waitingCount="1" stopTime="0.00" timeLoss="57.20" rerouteNo="1" devices="tripinfo_C1_1.0 routing_C1_1.0" vType="car" speedFactor="1.01" vaporized=""/>
    <tripinfo id="C3_1.1" depart="8.60" departLane="440471861#0_1" departPos="12.10" departPosLat="0.00" departSpeed="16.81" departDelay="0.00" arrival="124.70" arrivalLane="-140483224#1_1" arrivalPos="64.04" arrivalPosLat="-0.00" arrivalSpeed="27.76" duration="116.10" routeLength="1045.78" waitingTime="44.50" waitingCount="2" stopTime="0.00" timeLoss="77.07" rerouteNo="1" devices="tripinfo_C3_1.1 routing_C3_1.1" vType="bus" speedFactor="1.00" vaporized=""/>
    <tripinfo id="C1_1.1" depart="30.30" departLane="440471861#0_1" departPos="5.10" departPosLat="0.00" departSpeed="26.25" departDelay="0.00" arrival="128.40" arrivalLane="-793339796#2_2" arrivalPos="82.50" arrivalPosLat="0.00" arrivalSpeed="26.24" duration="98.10" routeLength="1653.99" waitingTime="10.20" waitingCount="1" stopTime="0.00" timeLoss="33.93" rerouteNo="1" devices="tripinfo_C1_1.1 routing_C1_1.1" vType="car" speedFactor="0.94" vaporized=""/>
    <tripinfo id="C1_1.2" depart="35.30" departLane="440471861#0_1" departPos="2.30" departPosLat="0.00" departSpeed="31.62" departDelay="0.00" arrival="131.90" arrivalLane="-793339796#2_1" arrivalPos="82.50" arrivalPosLat="-0.00" arrivalSpeed="31.38" duration="96.60" routeLength="1656.79" waitingTime="7.70" waitingCount="1" stopTime="0.00" timeLoss="43.18" rerouteNo="1" devices="tripinfo_C1_1.2 routing_C1_1.2" vType="tricycle" speedFactor="1.14" vaporized=""/>
    <personinfo id="pf_4.1" depart="15.00" type="ped" speedFactor="1.02" duration="123.60" waitingTime="6.60" timeLoss="18.41" traveltime="123.60">
        <walk depart="15.00" departPos="25.00" arrival="71.70" arrivalPos="29.11" duration="56.70" routeLength="72.15" timeLoss="5.54" maxSpeed="1.41" waitingTime="0.00"/>
        <walk depart="71.70" departPos="29.11" arrival="138.60" arrivalPos="29.05" duration="66.90" routeLength="76.20" timeLoss="12.87" maxSpeed="1.41" waitingTime="6.60"/>
    </personinfo>
    <tripinfo id="A2_1.4" depart="46.80" departLane="-793339796#2_1" departPos="5.10" departPosLat="0.00" departSpeed="28.29" departDelay="5.40" arrival="138.80" arrivalLane="-440471861#0_1" arrivalPos="31.52" arrivalPosLat="0.00" arrivalSpeed="28.22" duration="92.00" routeLength="1081.27" waitingTime="43.60" waitingCount="1" stopTime="0.00" timeLoss="53.68" rerouteNo="1" devices="tripinfo_A2_1.4 routing_A2_1.4" vType="car" speedFactor="1.02" vaporized=""/>
    <tripinfo id="A2_1.6" depart="48.10" departLane="-793339796#2_1" departPos="5.10" departPosLat="0.00" departSpeed="27.03" departDelay="0.00" arrival="140.50" arrivalLane="-440471861#0_1" arrivalPos="31.52" arrivalPosLat="-0.00" arrivalSpeed="26.96" duration="92.40" routeLength="1081.27" waitingTime="37.90" waitingCount="1" stopTime="0.00" timeLoss="52.33" rerouteNo="1" devices="tripinfo_A2_1.6 routing_A2_1.6" vType="car" speedFactor="0.97" vaporized=""/>
    <tripinfo id="A2_1.5" depart="46.80" departLane="-793339796#2_2" departPos="5.10" departPosLat="0.00" departSpeed="24.66" departDelay="0.20" arrival="140.70" arrivalLane="-440471861#0_2" arrivalPos="31.52" arrivalPosLat="0.00" arrivalSpeed="24.58" duration="93.90" routeLength="1081.27" waitingTime="41.20" waitingCount="1" stopTime="0.00" timeLoss="50.01" rerouteNo="1" devices="tripinfo_A2_1.5 routing_A2_1.5" vType="car" speedFactor="0.89" vaporized=""/>
    <tripinfo id="C1_1.3" depart="56.20" departLane="440471861#0_1" departPos="8.10" departPosLat="0.00" departSpeed="27.78" departDelay="0.00" arrival="141.10" arrivalLane="-793339796#2_2" arrivalPos="82.50" arrivalPosLat="0.00" arrivalSpeed="24.48" duration="84.90" routeLength="1650.99" waitingTime="0.00" waitingCount="0" stopTime="0.00" timeLoss="24.40" rerouteNo="1" devices="tripinfo_C1_1.3 routing_C1_1.3" vType="jeep" speedFactor="1.00" vaporized=""/>
    <tripinfo id="A2_1.8" depart="68.60" departLane="-793339796#2_1" departPos="5.10" departPosLat="0.00" departSpeed="27.81" departDelay="14.50" arrival="142.10" arrivalLane="-440471861#0_1" arrivalPos="31.52" arrivalPosLat="0.00" arrivalSpeed="27.72" duration="73.50" routeLength="1081.27" waitingTime="18.50" waitingCount="1" stopTime="0.00" timeLoss="34.53" rerouteNo="1" devices="tripinfo_A2_1.8 routing_A2_1.8" vType="car" speedFactor="1.00" vaporized=""/>
    <tripinfo id="A2_1.7" depart="48.40" departLane="-793339796#2_2" departPos="5.10" departPosLat="0.00" departSpeed="21.17" departDelay="0.00" arrival="144.80" arrivalLane="-440471861#0_2" arrivalPos="31.52" arrivalPosLat="-0.20" arrivalSpeed="21.14" duration="96.40" routeLength="1081.27" waitingTime="33.00" waitingCount="1" stopTime="0.00" timeLoss="45.23" rerouteNo="1" devices="tripinfo_A2_1.7 routing_A2_1.7" vType="car" speedFactor="0.76" vaporized=""/>
    <tripinfo id="C1_1.4" depart="57.10" departLane="440471861#0_1" departPos="8.10" departPosLat="0.00" departSpeed="26.01" departDelay="0.00" arrival="145.20" arrivalLane="-793339796#2_2" arrivalPos="82.50" arrivalPosLat="0.00" arrivalSpeed="24.40" duration="88.10" routeLength="1650.99" waitingTime="0.00" waitingCount="0" stopTime="0.00" timeLoss="27.57" rerouteNo="1" devices="tripinfo_C1_1.4 routing_C1_1.4" vType="jeep" speedFactor="1.00" vaporized=""/>
    <tripinfo id="B2_1.0" depart="13.90" departLane="-361257727#0_1" departPos="2.30" departPosLat="0.00" departSpeed="8.68" departDelay="0.00" arrival="146.00" arrivalLane="-440471861#0_1" arrivalPos="31.52" arrivalPosLat="-0.00" arrivalSpeed="26.88" duration="132.10" routeLength="1400.48" waitingTime="12.70" waitingCount="1" stopTime="0.00" timeLoss="19.38" rerouteNo="1" devices="tripinfo_B2_1.0 routing_B2_1.0" vType="motorcycle" speedFactor="1.04" vaporized=""/>
    <tripinfo id="C2_1.0" depart="40.30" departLane="440471861#0_2" departPos="5.10" departPosLat="0.00" departSpeed="26.65" departDelay="0.00" arrival="146.00" arrivalLane="-145894807#0_1" arrivalPos="260.95" arrivalPosLat="0.00" arrivalSpeed="7.94" duration="105.70" routeLength="1082.06" waitingTime="2.20" waitingCount="1" stopTime="0.00" timeLoss="16.77" rerouteNo="1" devices="tripinfo_C2_1.0 routing_C2_1.0" vType="car" speedFactor="0.96" vaporized=""/>
    <tripinfo id="C1_1.5" depart="63.70" departLane="440471861#0_1" departPos="5.10" departPosLat="0.00" departSpeed="28.30" departDelay="0.00" arrival="146.40" arrivalLane="-793339796#2_2" arrivalPos="82.50" arrivalPosLat="0.00" arrivalSpeed="25.96" duration="82.70" routeLength="1653.99" waitingTime="0.00" waitingCount="0" stopTime="0.00" timeLoss="23.20" rerouteNo="1" devices="tripinfo_C1_1.5 routing_C1_1.5" vType="car" speedFactor="1.02" vaporized=""/>
    <tripinfo id="C2_1.1" depart="54.60" departLane="440471861#0_2" departPos="5.10" departPosLat="0.00" departSpeed="27.21" departDelay="0.00" arrival="147.90" arrivalLane="-145894807#0_1" arrivalPos="260.95" arrivalPosLat="0.00" arrivalSpeed="8.13" duration="93.30" routeLength="1082.06" waitingTime="0.00" waitingCount="0" stopTime="0.00" timeLoss="6.21" rerouteNo="1" devices="tripinfo_C2_1.1 routing_C2_1.1" vType="car" speedFactor="0.98" vaporized=""/>
    <tripinfo id="D1_1.1" depart="47.90" departLane="140483224#1_1" departPos="5.10" departPosLat="0.00" departSpeed="31.78" departDelay="0.00" arrival="154.50" arrivalLane="-793339796#2_2" arrivalPos="82.50" arrivalPosLat="0.00" arrivalSpeed="31.77" duration="106.60" routeLength="1648.38" waitingTime="23.60" waitingCount="1" stopTime="0.00" timeLoss="52.64" rerouteNo="1" devices="tripinfo_D1_1.1 routing_D1_1.1" vType="car" speedFactor="1.14" vaporized=""/>
    <personinfo id="pf_2.9" depart="135.00" type="ped" speedFactor="1.17" duration="22.30" waitingTime="1.00" timeLoss="3.42" traveltime="22.30">
        <walk depart="135.00" departPos="15.09" arrival="157.30" arrivalPos="3.44" duration="22.30" routeLength="30.72" timeLoss="3.42" maxSpeed="1.63" waitingTime="1.00"/>
    </personinfo>
    <personinfo id="pf_2.7" depart="105.00" type="ped" speedFactor="1.15" duration="52.50" waitingTime="31.00" timeLoss="33.34" traveltime="52.50">
        <walk depart="105.00" departPos="15.09" arrival="157.50" arrivalPos="3.44" duration="52.50" routeLength="30.72" timeLoss="33.34" maxSpeed="1.60" waitingTime="31.00"/>
    </personinfo>
    <personinfo id="pf_2.8" depart="120.00" type="ped" speedFactor="1.01" duration="39.60" waitingTime="14.80" timeLoss="17.59" traveltime="39.60">
        <walk depart="120.00" departPos="15.09" arrival="159.60" arrivalPos="3.44" duration="39.60" routeLength="30.72" timeLoss="17.59" maxSpeed="1.40" waitingTime="14.80"/>
    </personinfo>
    <tripinfo id="D1_1.2" depart="74.50" departLane="140483224#1_1" departPos="2.30" departPosLat="0.00" departSpeed="26.46" departDelay="0.00" arrival="161.10" arrivalLane="-793339796#2_2" arrivalPos="82.50" arrivalPosLat="0.00" arrivalSpeed="26.44" duration="86.60" routeLength="1651.18" waitingTime="0.00" waitingCount="0" stopTime="0.00" timeLoss="21.72" rerouteNo="1" devices="tripinfo_D1_1.2 routing_D1_1.2" vType="tricycle" speedFactor="0.95" vaporized=""/>
    <personinfo id="pf_4.2" depart="30.00" type="ped" speedFactor="1.01" duration="131.60" waitingTime="14.40" timeLoss="25.92" traveltime="131.60">
        <walk depart="30.00" departPos="25.00" arrival="93.60" arrivalPos="29.11" duration="63.60" routeLength="72.15" timeLoss="12.20" maxSpeed="1.40" waitingTime="6.50"/>
        <walk depart="93.60" departPos="29.11" arrival="161.60" arrivalPos="29.05" duration="68.00" routeLength="76.20" timeLoss="13.72" maxSpeed="1.40" waitingTime="7.90"/>
    </personinfo>
    <tripinfo id="C3_1.3" depart="47.20" departLane="440471861#0_1" departPos="2.30" departPosLat="0.00" departSpeed="29.34" departDelay="0.00" arrival="163.30" arrivalLane="-140483224#1_1" arrivalPos="64.04" arrivalPosLat="-0.00" arrivalSpeed="29.11" duration="116.10" routeLength="1055.58" waitingTime="53.40" waitingCount="2" stopTime="0.00" timeLoss="78.84" rerouteNo="1" devices="tripinfo_C3_1.3 routing_C3_1.3" vType="motorcycle" speedFactor="1.06" vaporized=""/>
    <tripinfo id="D2_1.0" depart="25.10" departLane="140483224#1_1" departPos="2.30" departPosLat="0.00" departSpeed="28.06" departDelay="0.00" arrival="164.20" arrivalLane="-145894807#0_1" arrivalPos="260.95" arrivalPosLat="0.00" arrivalSpeed="8.35" duration="139.10" routeLength="1095.56" waitingTime="46.60" waitingCount="1" stopTime="0.00" timeLoss="54.52" rerouteNo="1" devices="tripinfo_D2_1.0 routing_D2_1.0" vType="tricycle" speedFactor="1.01" vaporized=""/>
    <tripinfo id="D2_1.1" depart="39.10" departLane="140483224#1_1" departPos="8.10" departPosLat="0.00" departSpeed="27.78" departDelay="0.00" arrival="166.70" arrivalLane="-145894807#0_1" arrivalPos="260.95" arrivalPosLat="0.00" arrivalSpeed="8.30" duration="127.60" routeLength="1089.76" waitingTime="26.80" waitingCount="1" stopTime="0.00" timeLoss="42.43" rerouteNo="1" devices="tripinfo_D2_1.1 routing_D2_1.1" vType="jeep" speedFactor="1.00" vaporized=""/>
    <tripinfo id="D2_1.2" depart="67.30" departLane="140483224#1_1" departPos="5.10" departPosLat="0.00" departSpeed="27.46" departDelay="0.00" arrival="170.00" arrivalLane="-145894807#0_1" arrivalPos="260.95" arrivalPosLat="0.00" arrivalSpeed="8.15" duration="102.70" routeLength="1092.76" waitingTime="4.70" waitingCount="1" stopTime="0.00" timeLoss="16.42" rerouteNo="1" devices="tripinfo_D2_1.2 routing_D2_1.2" vType="car" speedFactor="0.99" vaporized=""/>
    <tripinfo id="D1_1.3" depart="92.30" departLane="140483224#1_1" departPos="5.10" departPosLat="0.00" departSpeed="27.97" departDelay="0.00" arrival="170.20" arrivalLane="-793339796#2_2" arrivalPos="82.50" arrivalPosLat="0.00" arrivalSpeed="27.90" duration="77.90" routeLength="1648.38" waitingTime="0.00" waitingCount="0" stopTime="0.00" timeLoss="16.69" rerouteNo="1" devices="tripinfo_D1_1.3 routing_D1_1.3" vType="car" speedFactor="1.01" vaporized=""/>
    <personinfo id="pf_4.4" depart="60.00" type="ped" speedFactor="1.05" duration="113.20" waitingTime="0.00" timeLoss="11.13" traveltime="113.20">
        <walk depart="60.00" departPos="25.00" arrival="115.00" arrivalPos="29.11" duration="55.00" routeLength="72.15" timeLoss="5.36" maxSpeed="1.45" waitingTime="0.00"/>
        <walk depart="115.00" departPos="29.11" arrival="173.20" arrivalPos="29.05" duration="58.20" routeLength="76.20" timeLoss="5.77" maxSpeed="1.45" waitingTime="0.00"/>
    </personinfo>
    <tripinfo id="C3_1.2" depart="22.80" departLane="440471861#0_1" departPos="7.20" departPosLat="0.00" departSpeed="27.71" departDelay="0.00" arrival="175.50" arrivalLane="-140483224#1_2" arrivalPos="64.04" arrivalPosLat="0.00" arrivalSpeed="27.70" duration="152.70" routeLength="1050.68" waitingTime="77.60" waitingCount="3" stopTime="0.00" timeLoss="113.40" rerouteNo="1" devices="tripinfo_C3_1.2 routing_C3_1.2" vType="truck" speedFactor="1.00" vaporized=""/>
    <tripinfo id="D3_1.1" depart="94.70" departLane="140483224#1_2" departPos="5.10" departPosLat="0.00" departSpeed="19.71" departDelay="0.00" arrival="180.80" arrivalLane="-440471861#0_2" arrivalPos="31.52" arrivalPosLat="0.00" arrivalSpeed="29.79" duration="86.10" routeLength="1067.97" waitingTime="35.70" waitingCount="1" stopTime="0.00" timeLoss="48.84" rerouteNo="1" devices="tripinfo_D3_1.1 routing_D3_1.1" vType="car" speedFactor="1.08" vaporized=""/>
    <tripinfo id="B2_1.1" depart="62.00" departLane="-361257727#0_1" departPos="5.10" departPosLat="0.00" departSpeed="8.32" departDelay="0.00" arrival="184.90" arrivalLane="-440471861#0_1" arrivalPos="31.52" arrivalPosLat="0.00" arrivalSpeed="27.72" duration="122.90" routeLength="1397.68" waitingTime="0.00" waitingCount="0" stopTime="0.00" timeLoss="5.70" rerouteNo="1" devices="tripinfo_B2_1.1 routing_B2_1.1" vType="car" speedFactor="1.00" vaporized=""/>
    <tripinfo id="A1_1.0" depart="92.10" departLane="-793339796#2_1" departPos="8.10" departPosLat="0.00" departSpeed="27.78" departDelay="8.10" arrival="186.00" arrivalLane="-145894807#0_1" arrivalPos="260.95" arrivalPosLat="0.00" arrivalSpeed="8.29" duration="93.90" routeLength="1053.72" waitingTime="0.00" waitingCount="0" stopTime="0.00" timeLoss="4.44" rerouteNo="1" devices="tripinfo_A1_1.0 routing_A1_1.0" vType="jeep" speedFactor="1.00" vaporized=""/>
    <personinfo id="pf_4.5" depart="75.00" type="ped" speedFactor="1.12" duration="114.10" waitingTime="8.80" timeLoss="19.11" traveltime="114.10">
        <walk depart="75.00" departPos="25.00" arrival="134.90" arrivalPos="29.11" duration="59.90" routeLength="72.15" timeLoss="13.70" maxSpeed="1.56" waitingTime="8.80"/>
        <walk depart="134.90" departPos="29.11" arrival="189.10" arrivalPos="29.05" duration="54.20" routeLength="76.20" timeLoss="5.41" maxSpeed="1.56" waitingTime="0.00"/>
    </personinfo>
    <tripinfo id="D3_1.2" depart="121.80" departLane="140483224#1_1" departPos="7.20" departPosLat="0.00" departSpeed="27.42" departDelay="0.00" arrival="189.60" arrivalLane="-440471861#0_2" arrivalPos="31.52" arrivalPosLat="0.00" arrivalSpeed="27.40" duration="67.80" routeLength="1065.87" waitingTime="5.80" waitingCount="2" stopTime="0.00" timeLoss="27.32" rerouteNo="1" devices="tripinfo_D3_1.2 routing_D3_1.2" vType="truck" speedFactor="0.99" vaporized=""/>
    <tripinfo id="D3_1.3" depart="128.50" departLane="140483224#1_1" departPos="7.20" departPosLat="0.00" departSpeed="26.19" departDelay="0.00" arrival="191.40" arrivalLane="-440471861#0_2" arrivalPos="31.52" arrivalPosLat="0.00" arrivalSpeed="26.17" duration="62.90" routeLength="1065.87" waitingTime="3.80" waitingCount="1" stopTime="0.00" timeLoss="20.52" rerouteNo="1" devices="tripinfo_D3_1.3 routing_D3_1.3" vType="truck" speedFactor="0.94" vaporized=""/>
    <tripinfo id="C1_1.6" depart="82.10" departLane="440471861#0_1" departPos="7.20" departPosLat="0.00" departSpeed="27.04" departDelay="0.00" arrival="192.60" arrivalLane="-793339796#2_2" arrivalPos="82.50" arrivalPosLat="0.00" arrivalSpeed="25.75" duration="110.50" routeLength="1651.89" waitingTime="15.90" waitingCount="1" stopTime="0.00" timeLoss="48.24" rerouteNo="1" devices="tripinfo_C1_1.6 routing_C1_1.6" vType="truck" speedFactor="0.97" vaporized=""/>
    <tripinfo id="A2_1.9" depart="149.60" departLane="-793339796#2_2" departPos="5.10" departPosLat="0.00" departSpeed="27.04" departDelay="23.80" arrival="197.50" arrivalLane="-440471861#0_1" arrivalPos="31.52" arrivalPosLat="-0.00" arrivalSpeed="27.02" duration="47.90" routeLength="1081.27" waitingTime="0.00" waitingCount="0" stopTime="0.00" timeLoss="7.89" rerouteNo="1" devices="tripinfo_A2_1.9 routing_A2_1.9" vType="car" speedFactor="0.97" vaporized=""/>
    <tripinfo id="A3_1.2" depart="68.60" departLane="-793339796#2_2" departPos="7.20" departPosLat="0.00" departSpeed="24.90" departDelay="7.60" arrival="203.60" arrivalLane="-140483224#1_2" arrivalPos="64.04" arrivalPosLat="0.00" arrivalSpeed="24.86" duration="135.00" routeLength="1078.84" waitingTime="66.60" waitingCount="2" stopTime="0.00" timeLoss="89.95" rerouteNo="1" devices="tripinfo_A3_1.2 routing_A3_1.2" vType="truck" speedFactor="0.90" vaporized=""/>
    <tripinfo id="D1_1.4" depart="112.20" departLane="140483224#1_1" departPos="5.10" departPosLat="0.00" departSpeed="27.94" departDelay="0.00" arrival="213.60" arrivalLane="-793339796#2_2" arrivalPos="82.50" arrivalPosLat="0.00" arrivalSpeed="27.82" duration="101.40" routeLength="1648.38" waitingTime="7.40" waitingCount="2" stopTime="0.00" timeLoss="40.11" rerouteNo="1" devices="tripinfo_D1_1.4 routing_D1_1.4" vType="car" speedFactor="1.01" vaporized=""/>
    <tripinfo id="D2_1.3" depart="93.70" departLane="140483224#1_2" departPos="2.30" departPosLat="0.00" departSpeed="28.96" departDelay="0.00" arrival="215.70" arrivalLane="-145894807#0_1" arrivalPos="260.95" arrivalPosLat="-0.00" arrivalSpeed="8.65" duration="122.00" routeLength="1095.56" waitingTime="29.40" waitingCount="2" stopTime="0.00" timeLoss="40.04" rerouteNo="1" devices="tripinfo_D2_1.3 routing_D2_1.3" vType="tricycle" speedFactor="1.04" vaporized=""/>
    <tripinfo id="D2_1.4" depart="134.80" departLane="140483224#1_1" departPos="2.30" departPosLat="0.00" departSpeed="31.15" departDelay="0.00" arrival="217.00" arrivalLane="-145894807#0_1" arrivalPos="260.95" arrivalPosLat="0.00" arrivalSpeed="9.25" duration="82.20" routeLength="1095.56" waitingTime="0.00" waitingCount="0" stopTime="0.00" timeLoss="6.00" rerouteNo="1" devices="tripinfo_D2_1.4 routing_D2_1.4" vType="motorcycle" speedFactor="1.12" vaporized=""/>
    <personinfo id="pf_4.3" depart="45.00" type="ped" speedFactor="0.69" duration="173.80" waitingTime="1.90" timeLoss="19.09" traveltime="173.80">
        <walk depart="45.00" departPos="25.00" arrival="129.00" arrivalPos="29.11" duration="84.00" routeLength="72.15" timeLoss="8.76" maxSpeed="0.96" waitingTime="0.00"/>
        <walk depart="129.00" departPos="29.11" arrival="218.80" arrivalPos="29.05" duration="89.80" routeLength="76.20" timeLoss="10.33" maxSpeed="0.96" waitingTime="1.90"/>
    </personinfo>
    <tripinfo id="D1_1.7" depart="131.00" departLane="140483224#1_1" departPos="2.30" departPosLat="0.00" departSpeed="26.43" departDelay="0.00" arrival="218.80" arrivalLane="-793339796#2_2" arrivalPos="82.50" arrivalPosLat="0.00" arrivalSpeed="26.42" duration="87.80" routeLength="1651.18" waitingTime="0.00" waitingCount="0" stopTime="0.00" timeLoss="22.70" rerouteNo="1" devices="tripinfo_D1_1.7 routing_D1_1.7" vType="tricycle" speedFactor="0.95" vaporized=""/>
    <personinfo id="pf_4.6" depart="90.00" type="ped" speedFactor="1.01" duration="129.80" waitingTime="12.00" timeLoss="23.58" traveltime="129.80">
        <walk depart="90.00" departPos="25.00" arrival="147.30" arrivalPos="29.11" duration="57.30" routeLength="72.15" timeLoss="5.64" maxSpeed="1.40" waitingTime="0.00"/>
        <walk depart="147.30" departPos="29.11" arrival="219.80" arrivalPos="29.05" duration="72.50" routeLength="76.20" timeLoss="17.94" maxSpeed="1.40" waitingTime="12.00"/>
    </personinfo>
    <tripinfo id="D1_1.5" depart="117.10" departLane="140483224#1_1" departPos="5.10" departPosLat="0.00" departSpeed="27.34" departDelay="0.00" arrival="221.20" arrivalLane="-793339796#2_2" arrivalPos="82.50" arrivalPosLat="0.00" arrivalSpeed="27.32" duration="104.10" routeLength="1648.38" waitingTime="5.10" waitingCount="1" stopTime="0.00" timeLoss="41.32" rerouteNo="1" devices="tripinfo_D1_1.5 routing_D1_1.5" vType="car" speedFactor="0.98" vaporized=""/>
    <personinfo id="pf_4.7" depart="105.00" type="ped" speedFactor="1.01" duration="118.00" waitingTime="0.00" timeLoss="11.97" traveltime="118.00">
        <walk depart="105.00" departPos="25.00" arrival="162.40" arrivalPos="29.11" duration="57.40" routeLength="72.15" timeLoss="5.83" maxSpeed="1.40" waitingTime="0.00"/>
        <walk depart="162.40" departPos="29.11" arrival="223.00" arrivalPos="29.05" duration="60.60" routeLength="76.20" timeLoss="6.14" maxSpeed="1.40" waitingTime="0.00"/>
    </personinfo>