<?xml version="1.0" encoding="UTF-8"?>

<!-- generated on 2025-11-13 00:35:15 by Eclipse SUMO sumo Version 1.24.0
<sumoConfiguration xmlns:xsi="http://www.w3.org/2001/XMLSchema-instance" xsi:noNamespaceSchemaLocation="http://sumo.dlr.de/xsd/sumoConfiguration.xsd">

    <input>
        <net-file value="Olivarez_traci\network/map.net.xml"/>
        <route-files value="Olivarez_traci\demand/demand.rou.xml"/>
        <additional-files value="Olivarez_traci\additionals/map.poly.xml,Olivarez_traci\ additionals/detectors.add.xml"/>
    </input>

    <output>
        <tripinfo-output value="Olivarez_traci\output_DDPG\SD_DDPG_trips.xml"/>
        <statistic-output value="Olivarez_traci\output_DDPG\SD_DDPG_stats.xml"/>
    </output>

    <time>
        <begin value="0"/>
        <end value="10800"/>
        <step-length value="0.05"/>
    </time>

    <processing>
        <lateral-resolution value="0.1"/>
        <collision.action value="none"/>
        <collision.check-junctions value="false"/>
        <collision.mingap-factor value="0"/>
    </processing>

    <report>
        <no-warnings value="true"/>
    </report>

    <traci_server>
        <remote-port value="56330"/>
    </traci_server>

    <gui_only>
        <delay value="0"/>
    </gui_only>

</sumoConfiguration>
-->

<tripinfos xmlns:xsi="http://www.w3.org/2001/XMLSchema-instance" xsi:noNamespaceSchemaLocation="http://sumo.dlr.de/xsd/tripinfo_file.xsd">
    <tripinfo id="D3_1.0" depart="7.65" departLane="140483224#1_2" departPos="5.10" departPosLat="0.00" departSpeed="29.23" departDelay="0.00" arrival="50.40" arrivalLane="-440471861#0_2" arrivalPos="31.49" arrivalPosLat="0.00" arrivalSpeed="29.22" duration="42.75" routeLength="1069.11" waitingTime="0.00" waitingCount="0" stopTime="0.00" timeLoss="4.78" rerouteNo="1" devices="tripinfo_D3_1.0 routing_D3_1.0" vType="car" speedFactor="1.05" vaporized=""/>
    <tripinfo id="A2_1.0" depart="4.45" departLane="-793339796#2_1" departPos="5.10" departPosLat="0.00" departSpeed="26.72" departDelay="0.00" arrival="62.20" arrivalLane="-440471861#0_1" arrivalPos="31.49" arrivalPosLat="0.00" arrivalSpeed="26.68" duration="57.75" routeLength="1081.89" waitingTime="7.60" waitingCount="1" stopTime="0.00" timeLoss="17.23" rerouteNo="1" devices="tripinfo_A2_1.0 routing_A2_1.0" vType="car" speedFactor="0.96" vaporized=""/>
    <tripinfo id="D1_1.0" depart="0.60" departLane="140483224#1_1" departPos="8.10" departPosLat="0.00" departSpeed="31.73" departDelay="0.00" arrival="69.35" arrivalLane="-793339796#2_2" arrivalPos="83.13" arrivalPosLat="0.00" arrivalSpeed="31.68" duration="68.75" routeLength="1645.47" waitingTime="0.00" waitingCount="0" stopTime="0.00" timeLoss="14.84" rerouteNo="1" devices="tripinfo_D1_1.0 routing_D1_1.0" vType="jeep" speedFactor="1.14" vaporized=""/>
    <personinfo id="pf_1.0" depart="0.00" type="ped" speedFactor="1.06" duration="144.85" waitingTime="30.80" timeLoss="41.99" traveltime="144.85">
        <walk depart="0.00" departPos="25.00" arrival="144.85" arrivalPos="7.46" duration="144.85" routeLength="151.44" timeLoss="41.99" maxSpeed="1.47" waitingTime="30.80"/>
    </personinfo>
    <personinfo id="pf_1.1" depart="36.00" type="ped" speedFactor="0.94" duration="129.15" waitingTime="0.00" timeLoss="12.94" traveltime="129.15">
        <walk depart="36.00" departPos="25.00" arrival="165.15" arrivalPos="7.46" duration="129.15" routeLength="151.44" timeLoss="12.94" maxSpeed="1.30" waitingTime="0.00"/>
    </personinfo>
    <tripinfo id="C3_1.1" depart="78.25" departLane="440471861#0_1" departPos="8.10" departPosLat="0.00" departSpeed="29.57" departDelay="0.00" arrival="165.35" arrivalLane="-140483224#1_2" arrivalPos="64.17" arrivalPosLat="0.00" arrivalSpeed="29.54" duration="87.10" routeLength="1050.95" waitingTime="26.20" waitingCount="2" stopTime="0.00" timeLoss="50.49" rerouteNo="1" devices="tripinfo_C3_1.1 routing_C3_1.1" vType="jeep" speedFactor="1.06" vaporized=""/>
    <tripinfo id="C3_1.0" depart="43.55" departLane="440471861#0_1" departPos="2.30" departPosLat="0.00" departSpeed="28.16" departDelay="0.00" arrival="168.00" arrivalLane="-140483224#1_1" arrivalPos="64.17" arrivalPosLat="-0.00" arrivalSpeed="28.12" duration="124.45" routeLength="1056.75" waitingTime="64.20" waitingCount="2" stopTime="0.00" timeLoss="85.80" rerouteNo="1" devices="tripinfo_C3_1.0 routing_C3_1.0" vType="tricycle" speedFactor="1.01" vaporized=""/>
    <tripinfo id="C1_1.0" depart="31.85" departLane="440471861#0_1" departPos="2.30" departPosLat="0.00" departSpeed="30.61" departDelay="0.00" arrival="168.65" arrivalLane="-793339796#2_2" arrivalPos="83.13" arrivalPosLat="0.00" arrivalSpeed="30.51" duration="136.80" routeLength="1656.83" waitingTime="68.55" waitingCount="2" stopTime="0.00" timeLoss="81.66" rerouteNo="1" devices="tripinfo_C1_1.0 routing_C1_1.0" vType="motorcycle" speedFactor="1.10" vaporized=""/>
    <tripinfo id="D3_1.1" depart="100.85" departLane="140483224#1_2" departPos="8.10" departPosLat="0.00" departSpeed="30.83" departDelay="0.00" arrival="169.30" arrivalLane="-440471861#0_2" arrivalPos="31.49" arrivalPosLat="0.00" arrivalSpeed="30.80" duration="68.45" routeLength="1066.11" waitingTime="20.95" waitingCount="1" stopTime="0.00" timeLoss="32.51" rerouteNo="1" devices="tripinfo_D3_1.1 routing_D3_1.1" vType="jeep" speedFactor="1.11" vaporized=""/>
    <tripinfo id="A1_1.0" depart="78.95" departLane="-793339796#2_1" departPos="7.20" departPosLat="0.00" departSpeed="29.06" departDelay="0.00" arrival="169.75" arrivalLane="-145894807#0_1" arrivalPos="260.97" arrivalPosLat="0.00" arrivalSpeed="8.70" duration="90.80" routeLength="1055.35" waitingTime="0.00" waitingCount="0" stopTime="0.00" timeLoss="5.27" rerouteNo="1" devices="tripinfo_A1_1.0 routing_A1_1.0" vType="truck" speedFactor="1.05" vaporized=""/>
    <tripinfo id="C1_1.1" depart="41.05" departLane="440471861#0_1" departPos="5.10" departPosLat="0.00" departSpeed="26.92" departDelay="0.00" arrival="180.95" arrivalLane="-793339796#2_2" arrivalPos="83.13" arrivalPosLat="0.00" arrivalSpeed="26.85" duration="139.90" routeLength="1654.03" waitingTime="52.60" waitingCount="2" stopTime="0.00" timeLoss="77.34" rerouteNo="1" devices="tripinfo_C1_1.1 routing_C1_1.1" vType="car" speedFactor="0.97" vaporized=""/>
    <tripinfo id="C2_1.0" depart="20.15" departLane="440471861#0_2" departPos="5.10" departPosLat="0.00" departSpeed="28.79" departDelay="0.00" arrival="181.15" arrivalLane="-145894807#0_1" arrivalPos="260.97" arrivalPosLat="0.00" arrivalSpeed="8.61" duration="161.00" routeLength="1099.91" waitingTime="69.75" waitingCount="1" stopTime="0.00" timeLoss="76.75" rerouteNo="1" devices="tripinfo_C2_1.0 routing_C2_1.0" vType="car" speedFactor="1.04" vaporized=""/>
    <tripinfo id="B1_1.0" depart="37.80" departLane="-361257727#0_1" departPos="5.10" departPosLat="0.00" departSpeed="8.02" departDelay="0.00" arrival="191.50" arrivalLane="-793339796#2_2" arrivalPos="83.13" arrivalPosLat="0.00" arrivalSpeed="26.74" duration="153.70" routeLength="1915.62" waitingTime="0.00" waitingCount="0" stopTime="0.00" timeLoss="13.84" rerouteNo="1" devices="tripinfo_B1_1.0 routing_B1_1.0" vType="car" speedFactor="0.96" vaporized=""/>
    <personinfo id="pf_1.2" depart="72.00" type="ped" speedFactor="1.01" duration="143.15" waitingTime="23.30" timeLoss="35.24" traveltime="143.15">
        <walk depart="72.00" departPos="25.00" arrival="215.15" arrivalPos="7.46" duration="143.15" routeLength="151.44" timeLoss="35.24" maxSpeed="1.40" waitingTime="23.30"/>
    </personinfo>
    <tripinfo id="A1_1.1" depart="125.65" departLane="-793339796#2_1" departPos="2.30" departPosLat="0.00" departSpeed="27.06" departDelay="0.00" arrival="219.75" arrivalLane="-145894807#0_1" arrivalPos="260.97" arrivalPosLat="0.00" arrivalSpeed="7.97" duration="94.10" routeLength="1060.25" waitingTime="0.00" waitingCount="0" stopTime="0.00" timeLoss="2.05" rerouteNo="1" devices="tripinfo_A1_1.1 routing_A1_1.1" vType="motorcycle" speedFactor="0.97" vaporized=""/>
    <personinfo id="pf_1.3" depart="108.00" type="ped" speedFactor="1.08" duration="111.90" waitingTime="0.00" timeLoss="11.19" traveltime="111.90">
        <walk depart="108.00" departPos="25.00" arrival="219.90" arrivalPos="7.46" duration="111.90" routeLength="151.44" timeLoss="11.19" maxSpeed="1.50" waitingTime="0.00"/>
    </personinfo>
    <tripinfo id="A3_1.1" depart="148.50" departLane="-793339796#2_1" departPos="2.30" departPosLat="0.00" departSpeed="32.00" departDelay="0.00" arrival="229.80" arrivalLane="-140483224#1_2" arrivalPos="64.17" arrivalPosLat="0.00" arrivalSpeed="31.94" duration="81.30" routeLength="1084.53" waitingTime="35.55" waitingCount="2" stopTime="0.00" timeLoss="46.10" rerouteNo="1" devices="tripinfo_A3_1.1 routing_A3_1.1" vType="motorcycle" speedFactor="1.15" vaporized=""/>
    <tripinfo id="A3_1.0" depart="107.30" departLane="-793339796#2_1" departPos="2.30" departPosLat="0.00" departSpeed="23.62" departDelay="0.00" arrival="234.40" arrivalLane="-140483224#1_2" arrivalPos="64.17" arrivalPosLat="0.00" arrivalSpeed="23.48" duration="127.10" routeLength="1084.53" waitingTime="73.20" waitingCount="2" stopTime="0.00" timeLoss="79.46" rerouteNo="1" devices="tripinfo_A3_1.0 routing_A3_1.0" vType="motorcycle" speedFactor="0.85" vaporized=""/>
    <tripinfo id="A1_1.2" depart="154.60" departLane="-793339796#2_1" departPos="2.30" departPosLat="0.00" departSpeed="31.66" departDelay="0.00" arrival="235.35" arrivalLane="-145894807#0_1" arrivalPos="260.97" arrivalPosLat="0.00" arrivalSpeed="9.45" duration="80.75" routeLength="1060.25" waitingTime="0.00" waitingCount="0" stopTime="0.00" timeLoss="2.12" rerouteNo="1" devices="tripinfo_A1_1.2 routing_A1_1.2" vType="motorcycle" speedFactor="1.14" vaporized=""/>
    <tripinfo id="D1_1.1" depart="46.15" departLane="140483224#1_1" departPos="2.30" departPosLat="0.00" departSpeed="29.74" departDelay="0.00" arrival="241.20" arrivalLane="-793339796#2_2" arrivalPos="83.13" arrivalPosLat="0.00" arrivalSpeed="29.70" duration="195.05" routeLength="1651.27" waitingTime="106.55" waitingCount="3" stopTime="0.00" timeLoss="137.30" rerouteNo="1" devices="tripinfo_D1_1.1 routing_D1_1.1" vType="tricycle" speedFactor="1.07" vaporized=""/>
    <tripinfo id="B2_1.0" depart="31.00" departLane="-361257727#0_1" departPos="5.10" departPosLat="0.00" departSpeed="9.74" departDelay="0.00" arrival="243.30" arrivalLane="-440471861#0_1" arrivalPos="31.49" arrivalPosLat="0.00" arrivalSpeed="32.47" duration="212.30" routeLength="1414.29" waitingTime="99.20" waitingCount="1" stopTime="0.00" timeLoss="110.49" rerouteNo="1" devices="tripinfo_B2_1.0 routing_B2_1.0" vType="car" speedFactor="1.17" vaporized=""/>
    <tripinfo id="D1_1.3" depart="118.00" departLane="140483224#1_1" departPos="2.30" departPosLat="0.00" departSpeed="28.91" departDelay="0.00" arrival="244.05" arrivalLane="-793339796#2_2" arrivalPos="83.13" arrivalPosLat="0.00" arrivalSpeed="28.86" duration="126.05" routeLength="1651.27" waitingTime="29.80" waitingCount="2" stopTime="0.00" timeLoss="66.65" rerouteNo="1" devices="tripinfo_D1_1.3 routing_D1_1.3" vType="tricycle" speedFactor="1.04" vaporized=""/>
    <tripinfo id="D1_1.2" depart="58.55" departLane="140483224#1_1" departPos="2.30" departPosLat="0.00" departSpeed="27.78" departDelay="0.00" arrival="246.85" arrivalLane="-793339796#2_2" arrivalPos="83.13" arrivalPosLat="0.00" arrivalSpeed="27.76" duration="188.30" routeLength="1651.27" waitingTime="96.75" waitingCount="2" stopTime="0.00" timeLoss="126.49" rerouteNo="1" devices="tripinfo_D1_1.2 routing_D1_1.2" vType="tricycle" speedFactor="1.00" vaporized=""/>
    <tripinfo id="B2_1.1" depart="64.60" departLane="-361257727#0_1" departPos="5.10" departPosLat="0.00" departSpeed="7.58" departDelay="0.00" arrival="247.25" arrivalLane="-440471861#0_1" arrivalPos="31.49" arrivalPosLat="0.00" arrivalSpeed="25.25" duration="182.65" routeLength="1414.29" waitingTime="40.50" waitingCount="1" stopTime="0.00" timeLoss="51.89" rerouteNo="1" devices="tripinfo_B2_1.1 routing_B2_1.1" vType="car" speedFactor="0.91" vaporized=""/>
    <tripinfo id="B2_1.2" depart="75.15" departLane="-361257727#0_1" departPos="5.10" departPosLat="0.00" departSpeed="7.68" departDelay="0.00" arrival="248.50" arrivalLane="-440471861#0_1" arrivalPos="31.49" arrivalPosLat="0.00" arrivalSpeed="25.62" duration="173.35" routeLength="1414.29" waitingTime="32.60" waitingCount="1" stopTime="0.00" timeLoss="44.37" rerouteNo="1" devices="tripinfo_B2_1.2 routing_B2_1.2" vType="car" speedFactor="0.92" vaporized=""/>
    <personinfo id="pf_1.4" depart="144.00" type="ped" speedFactor="1.03" duration="141.10" waitingTime="23.75" timeLoss="35.27" traveltime="141.10">
        <walk depart="144.00" departPos="25.00" arrival="285.10" arrivalPos="7.46" duration="141.10" routeLength="151.44" timeLoss="35.27" maxSpeed="1.43" waitingTime="23.75"/>
    </personinfo>
    <tripinfo id="C3_1.3" depart="180.75" departLane="440471861#0_1" departPos="5.10" departPosLat="0.00" departSpeed="26.94" departDelay="0.00" arrival="305.65" arrivalLane="-140483224#1_2" arrivalPos="64.17" arrivalPosLat="0.00" arrivalSpeed="26.92" duration="124.90" routeLength="1053.95" waitingTime="61.40" waitingCount="3" stopTime="0.00" timeLoss="84.56" rerouteNo="1" devices="tripinfo_C3_1.3 routing_C3_1.3" vType="car" speedFactor="0.97" vaporized=""/>
    <tripinfo id="C3_1.2" depart="161.95" departLane="440471861#0_1" departPos="5.10" departPosLat="0.00" departSpeed="24.74" departDelay="0.00" arrival="306.50" arrivalLane="-140483224#1_1" arrivalPos="64.17" arrivalPosLat="-0.00" arrivalSpeed="24.69" duration="144.55" routeLength="1053.95" waitingTime="86.75" waitingCount="2" stopTime="0.00" timeLoss="100.67" rerouteNo="1" devices="tripinfo_C3_1.2 routing_C3_1.2" vType="car" speedFactor="0.89" vaporized=""/>
    <tripinfo id="D3_1.2" depart="208.30" departLane="140483224#1_1" departPos="2.30" departPosLat="0.00" departSpeed="27.02" departDelay="0.00" arrival="310.00" arrivalLane="-440471861#0_2" arrivalPos="31.49" arrivalPosLat="0.00" arrivalSpeed="27.01" duration="101.70" routeLength="1071.91" waitingTime="56.85" waitingCount="1" stopTime="0.00" timeLoss="60.50" rerouteNo="1" devices="tripinfo_D3_1.2 routing_D3_1.2" vType="motorcycle" speedFactor="0.97" vaporized=""/>
    <tripinfo id="A1_1.3" depart="222.65" departLane="-793339796#2_1" departPos="7.20" departPosLat="0.00" departSpeed="27.11" departDelay="0.00" arrival="325.75" arrivalLane="-145894807#0_1" arrivalPos="260.97" arrivalPosLat="0.00" arrivalSpeed="8.11" duration="103.10" routeLength="1055.35" waitingTime="2.55" waitingCount="1" stopTime="0.00" timeLoss="11.44" rerouteNo="1" devices="tripinfo_A1_1.3 routing_A1_1.3" vType="truck" speedFactor="0.98" vaporized=""/>
    <tripinfo id="B1_1.1" depart="171.30" departLane="-361257727#0_1" departPos="7.20" departPosLat="0.00" departSpeed="8.86" departDelay="0.00" arrival="326.75" arrivalLane="-793339796#2_2" arrivalPos="83.13" arrivalPosLat="0.00" arrivalSpeed="25.46" duration="155.45" routeLength="1913.52" waitingTime="0.00" waitingCount="0" stopTime="0.00" timeLoss="29.02" rerouteNo="1" devices="tripinfo_B1_1.1 routing_B1_1.1" vType="truck" speedFactor="1.06" vaporized=""/>
    <tripinfo id="C2_1.1" depart="161.10" departLane="440471861#0_2" departPos="5.10" departPosLat="0.00" departSpeed="28.93" departDelay="0.00" arrival="327.80" arrivalLane="-145894807#0_1" arrivalPos="260.97" arrivalPosLat="0.00" arrivalSpeed="8.64" duration="166.70" routeLength="1099.91" waitingTime="70.20" waitingCount="2" stopTime="0.00" timeLoss="82.84" rerouteNo="1" devices="tripinfo_C2_1.1 routing_C2_1.1" vType="car" speedFactor="1.04" vaporized=""/>
    <tripinfo id="A2_1.1" depart="261.45" departLane="-793339796#2_1" departPos="8.10" departPosLat="0.00" departSpeed="29.72" departDelay="0.00" arrival="346.20" arrivalLane="-440471861#0_1" arrivalPos="31.49" arrivalPosLat="0.00" arrivalSpeed="29.67" duration="84.75" routeLength="1078.89" waitingTime="31.55" waitingCount="2" stopTime="0.00" timeLoss="48.44" rerouteNo="1" devices="tripinfo_A2_1.1 routing_A2_1.1" vType="jeep" speedFactor="1.07" vaporized=""/>
    <tripinfo id="D1_1.5" depart="226.35" departLane="140483224#1_1" departPos="5.10" departPosLat="0.00" departSpeed="30.89" departDelay="0.00" arrival="350.05" arrivalLane="-793339796#2_2" arrivalPos="83.13" arrivalPosLat="0.00" arrivalSpeed="30.87" duration="123.70" routeLength="1648.47" waitingTime="49.50" waitingCount="2" stopTime="0.00" timeLoss="68.29" rerouteNo="1" devices="tripinfo_D1_1.5 routing_D1_1.5" vType="car" speedFactor="1.11" vaporized=""/>
    <personinfo id="pf_1.6" depart="216.00" type="ped" speedFactor="1.05" duration="136.30" waitingTime="20.50" timeLoss="32.04" traveltime="136.30">
        <walk depart="216.00" departPos="25.00" arrival="352.30" arrivalPos="7.46" duration="136.30" routeLength="151.44" timeLoss="32.04" maxSpeed="1.45" waitingTime="20.50"/>
    </personinfo>
    <tripinfo id="D1_1.4" depart="178.90" departLane="140483224#1_1" departPos="5.10" departPosLat="0.00" departSpeed="31.36" departDelay="0.00" arrival="359.00" arrivalLane="-793339796#2_2" arrivalPos="83.13" arrivalPosLat="0.00" arrivalSpeed="31.34" duration="180.10" routeLength="1648.47" waitingTime="93.35" waitingCount="3" stopTime="0.00" timeLoss="125.47" rerouteNo="1" devices="tripinfo_D1_1.4 routing_D1_1.4" vType="car" speedFactor="1.13" vaporized=""/>
    <personinfo id="pf_1.5" depart="180.00" type="ped" speedFactor="0.83" duration="182.30" waitingTime="36.40" timeLoss="51.09" traveltime="182.30">
        <walk depart="180.00" departPos="25.00" arrival="362.30" arrivalPos="7.46" duration="182.30" routeLength="151.44" timeLoss="51.09" maxSpeed="1.15" waitingTime="36.40"/>
    </personinfo>
    <tripinfo id="D1_1.6" depart="284.85" departLane="140483224#1_1" departPos="5.10" departPosLat="0.00" departSpeed="29.54" departDelay="0.00" arrival="362.75" arrivalLane="-793339796#2_2" arrivalPos="83.13" arrivalPosLat="-0.00" arrivalSpeed="29.49" duration="77.90" routeLength="1648.47" waitingTime="0.00" waitingCount="0" stopTime="0.00" timeLoss="19.91" rerouteNo="1" devices="tripinfo_D1_1.6 routing_D1_1.6" vType="car" speedFactor="1.06" vaporized=""/>
    <tripinfo id="A3_1.2" depart="227.15" departLane="-793339796#2_2" departPos="5.10" departPosLat="0.00" departSpeed="28.96" departDelay="0.00" arrival="373.80" arrivalLane="-140483224#1_2" arrivalPos="64.17" arrivalPosLat="0.00" arrivalSpeed="28.93" duration="146.65" routeLength="1081.73" waitingTime="89.35" waitingCount="2" stopTime="0.00" timeLoss="107.84" rerouteNo="1" devices="tripinfo_A3_1.2 routing_A3_1.2" vType="car" speedFactor="1.04" vaporized=""/>
    <personinfo id="pf_1.7" depart="252.00" type="ped" speedFactor="0.89" duration="136.80" waitingTime="0.00" timeLoss="13.73" traveltime="136.80">
        <walk depart="252.00" departPos="25.00" arrival="388.80" arrivalPos="7.46" duration="136.80" routeLength="151.44" timeLoss="13.73" maxSpeed="1.23" waitingTime="0.00"/>
    </personinfo>
    <tripinfo id="B2_1.3" depart="198.55" departLane="-361257727#0_1" departPos="5.10" departPosLat="0.00" departSpeed="6.34" departDelay="0.00" arrival="389.90" arrivalLane="-440471861#0_1" arrivalPos="31.49" arrivalPosLat="0.00" arrivalSpeed="21.10" duration="191.35" routeLength="1414.29" waitingTime="28.15" waitingCount="1" stopTime="0.00" timeLoss="35.04" rerouteNo="1" devices="tripinfo_B2_1.3 routing_B2_1.3" vType="car" speedFactor="0.76" vaporized=""/>
    <tripinfo id="B3_1.0" depart="241.30" departLane="-361257727#0_1" departPos="12.10" departPosLat="0.00" departSpeed="8.33" departDelay="0.00" arrival="394.65" arrivalLane="-140483224#1_1" arrivalPos="64.17" arrivalPosLat="0.00" arrivalSpeed="27.76" duration="153.35" routeLength="1420.11" waitingTime="12.70" waitingCount="1" stopTime="0.00" timeLoss="34.98" rerouteNo="1" devices="tripinfo_B3_1.0 routing_B3_1.0" vType="bus" speedFactor="1.00" vaporized=""/>
    <tripinfo id="A1_1.4" depart="277.50" departLane="-793339796#2_1" departPos="5.10" departPosLat="0.00" departSpeed="19.69" departDelay="0.00" arrival="406.55" arrivalLane="-145894807#0_1" arrivalPos="260.97" arrivalPosLat="0.00" arrivalSpeed="5.90" duration="129.05" routeLength="1057.45" waitingTime="0.00" waitingCount="0" stopTime="0.00" timeLoss="2.78" rerouteNo="1" devices="tripinfo_A1_1.4 routing_A1_1.4" vType="car" speedFactor="0.71" vaporized=""/>
    <tripinfo id="D2_1.0" depart="290.30" departLane="140483224#1_1" departPos="8.10" departPosLat="0.00" departSpeed="31.44" departDelay="0.00" arrival="408.30" arrivalLane="-145894807#0_1" arrivalPos="260.97" arrivalPosLat="0.00" arrivalSpeed="9.35" duration="118.00" routeLength="1106.87" waitingTime="5.75" waitingCount="1" stopTime="0.00" timeLoss="40.95" rerouteNo="1" devices="tripinfo_D2_1.0 routing_D2_1.0" vType="jeep" speedFactor="1.13" vaporized=""/>
    <tripinfo id="A1_1.5" depart="322.60" departLane="-793339796#2_1" departPos="12.10" departPosLat="0.00" departSpeed="27.78" departDelay="0.00" arrival="416.70" arrivalLane="-145894807#0_1" arrivalPos="260.97" arrivalPosLat="0.00" arrivalSpeed="8.31" duration="94.10" routeLength="1050.45" waitingTime="0.00" waitingCount="0" stopTime="0.00" timeLoss="4.82" rerouteNo="1" devices="tripinfo_A1_1.5 routing_A1_1.5" vType="bus" speedFactor="1.00" vaporized=""/>
    <personinfo id="pf_1.8" depart="288.00" type="ped" speedFactor="0.94" duration="139.20" waitingTime="10.25" timeLoss="22.94" traveltime="139.20">
        <walk depart="288.00" departPos="25.00" arrival="427.20" arrivalPos="7.46" duration="139.20" routeLength="151.44" timeLoss="22.94" maxSpeed="1.30" waitingTime="10.25"/>
    </personinfo>
    <tripinfo id="A1_1.6" depart="329.65" departLane="-793339796#2_1" departPos="8.10" departPosLat="0.00" departSpeed="26.12" departDelay="0.00" arrival="428.10" arrivalLane="-145894807#0_1" arrivalPos="260.97" arrivalPosLat="0.00" arrivalSpeed="7.79" duration="98.45" routeLength="1054.45" waitingTime="0.00" waitingCount="0" stopTime="0.00" timeLoss="3.37" rerouteNo="1" devices="tripinfo_A1_1.6 routing_A1_1.6" vType="jeep" speedFactor="0.94" vaporized=""/>
    <tripinfo id="A1_1.7" depart="342.40" departLane="-793339796#2_1" departPos="2.30" departPosLat="0.00" departSpeed="25.75" departDelay="0.00" arrival="441.25" arrivalLane="-145894807#0_1" arrivalPos="260.97" arrivalPosLat="0.00" arrivalSpeed="7.68" duration="98.85" routeLength="1060.25" waitingTime="0.00" waitingCount="0" stopTime="0.00" timeLoss="2.18" rerouteNo="1" devices="tripinfo_A1_1.7 routing_A1_1.7" vType="tricycle" speedFactor="0.93" vaporized=""/>
    <tripinfo id="C3_1.4" depart="308.85" departLane="440471861#0_1" departPos="5.10" departPosLat="0.00" departSpeed="26.59" departDelay="0.00" arrival="445.00" arrivalLane="-140483224#1_1" arrivalPos="64.17" arrivalPosLat="-0.00" arrivalSpeed="26.53" duration="136.15" routeLength="1053.95" waitingTime="75.05" waitingCount="2" stopTime="0.00" timeLoss="95.34" rerouteNo="1" devices="tripinfo_C3_1.4 routing_C3_1.4" vType="car" speedFactor="0.96" vaporized=""/>
    <tripinfo id="D3_1.3" depart="358.75" departLane="140483224#1_1" departPos="2.30" departPosLat="0.00" departSpeed="24.08" departDelay="0.00" arrival="452.75" arrivalLane="-440471861#0_2" arrivalPos="31.49" arrivalPosLat="0.00" arrivalSpeed="23.94" duration="94.00" routeLength="1071.91" waitingTime="44.40" waitingCount="1" stopTime="0.00" timeLoss="47.79" rerouteNo="1" devices="tripinfo_D3_1.3 routing_D3_1.3" vType="motorcycle" speedFactor="0.87" vaporized=""/>
    <tripinfo id="D3_1.4" depart="380.35" departLane="140483224#1_2" departPos="8.10" departPosLat="0.00" departSpeed="24.53" departDelay="0.00" arrival="457.10" arrivalLane="-440471861#0_2" arrivalPos="31.49" arrivalPosLat="0.00" arrivalSpeed="24.50" duration="76.75" routeLength="1066.11" waitingTime="18.60" waitingCount="2" stopTime="0.00" timeLoss="31.61" rerouteNo="1" devices="tripinfo_D3_1.4 routing_D3_1.4" vType="jeep" speedFactor="0.88" vaporized=""/>
    <tripinfo id="C2_1.2" depart="289.65" departLane="440471861#0_2" departPos="5.10" departPosLat="0.00" departSpeed="31.01" departDelay="0.00" arrival="457.95" arrivalLane="-145894807#0_1" arrivalPos="260.97" arrivalPosLat="0.00" arrivalSpeed="9.25" duration="168.30" routeLength="1099.91" waitingTime="82.50" waitingCount="1" stopTime="0.00" timeLoss="90.05" rerouteNo="1" devices="tripinfo_C2_1.2 routing_C2_1.2" vType="car" speedFactor="1.12" vaporized=""/>
    <tripinfo id="A2_1.2" depart="337.55" departLane="-793339796#2_1" departPos="2.30" departPosLat="0.00" departSpeed="35.06" departDelay="0.00" arrival="480.20" arrivalLane="-440471861#0_1" arrivalPos="31.49" arrivalPosLat="0.00" arrivalSpeed="34.97" duration="142.65" routeLength="1084.69" waitingTime="102.10" waitingCount="2" stopTime="0.00" timeLoss="111.71" rerouteNo="1" devices="tripinfo_A2_1.2 routing_A2_1.2" vType="motorcycle" speedFactor="1.26" vaporized=""/>
    <tripinfo id="C1_1.2" depart="288.55" departLane="440471861#0_1" departPos="8.10" departPosLat="0.00" departSpeed="28.18" departDelay="0.00" arrival="482.00" arrivalLane="-793339796#2_2" arrivalPos="83.13" arrivalPosLat="0.00" arrivalSpeed="28.15" duration="193.45" routeLength="1651.03" waitingTime="108.65" waitingCount="2" stopTime="0.00" timeLoss="133.77" rerouteNo="1" devices="tripinfo_C1_1.2 routing_C1_1.2" vType="jeep" speedFactor="1.01" vaporized=""/>
    <tripinfo id="C2_1.3" depart="379.20" departLane="440471861#0_2" departPos="5.10" departPosLat="0.00" departSpeed="23.74" departDelay="0.00" arrival="483.00" arrivalLane="-145894807#0_1" arrivalPos="260.97" arrivalPosLat="0.00" arrivalSpeed="7.10" duration="103.80" routeLength="1099.91" waitingTime="0.00" waitingCount="0" stopTime="0.00" timeLoss="1.62" rerouteNo="1" devices="tripinfo_C2_1.3 routing_C2_1.3" vType="car" speedFactor="0.85" vaporized=""/>
    <tripinfo id="A1_1.8" depart="383.20" departLane="-793339796#2_1" departPos="7.20" departPosLat="0.00" departSpeed="27.02" departDelay="0.00" arrival="484.95" arrivalLane="-145894807#0_1" arrivalPos="260.97" arrivalPosLat="0.00" arrivalSpeed="8.09" duration="101.75" routeLength="1055.35" waitingTime="0.00" waitingCount="0" stopTime="0.00" timeLoss="9.81" rerouteNo="1" devices="tripinfo_A1_1.8 routing_A1_1.8" vType="truck" speedFactor="0.97" vaporized=""/>
    <tripinfo id="C1_1.3" depart="324.05" departLane="440471861#0_1" departPos="5.10" departPosLat="0.00" departSpeed="26.79" departDelay="0.00" arrival="486.25" arrivalLane="-793339796#2_2" arrivalPos="83.13" arrivalPosLat="0.00" arrivalSpeed="26.79" duration="162.20" routeLength="1654.03" waitingTime="65.90" waitingCount="2" stopTime="0.00" timeLoss="99.32" rerouteNo="1" devices="tripinfo_C1_1.3 routing_C1_1.3" vType="car" speedFactor="0.96" vaporized=""/>
    <personinfo id="pf_1.10" depart="360.00" type="ped" speedFactor="1.09" duration="130.30" waitingTime="19.05" timeLoss="30.33" traveltime="130.30">
        <walk depart="360.00" departPos="25.00" arrival="490.30" arrivalPos="7.46" duration="130.30" routeLength="151.44" timeLoss="30.33" maxSpeed="1.51" waitingTime="19.05"/>
    </personinfo>
    <tripinfo id="D1_1.7" depart="370.50" departLane="140483224#1_1" departPos="2.30" departPosLat="0.00" departSpeed="26.75" departDelay="0.00" arrival="490.70" arrivalLane="-793339796#2_2" arrivalPos="83.13" arrivalPosLat="0.00" arrivalSpeed="26.71" duration="120.20" routeLength="1651.27" waitingTime="29.30" waitingCount="1" stopTime="0.00" timeLoss="56.02" rerouteNo="1" devices="tripinfo_D1_1.7 routing_D1_1.7" vType="tricycle" speedFactor="0.96" vaporized=""/>
    <tripinfo id="C2_1.4" depart="400.55" departLane="440471861#0_2" departPos="5.10" departPosLat="0.00" departSpeed="26.92" departDelay="0.00" arrival="492.55" arrivalLane="-145894807#0_1" arrivalPos="260.97" arrivalPosLat="0.00" arrivalSpeed="8.01" duration="92.00" routeLength="1099.91" waitingTime="0.00" waitingCount="0" stopTime="0.00" timeLoss="1.86" rerouteNo="1" devices="tripinfo_C2_1.4 routing_C2_1.4" vType="car" speedFactor="0.97" vaporized=""/>
    <tripinfo id="C2_1.5" depart="401.10" departLane="440471861#0_2" departPos="5.10" departPosLat="0.00" departSpeed="23.91" departDelay="0.00" arrival="494.35" arrivalLane="-145894807#0_1" arrivalPos="260.97" arrivalPosLat="0.00" arrivalSpeed="8.75" duration="93.25" routeLength="1099.91" waitingTime="0.00" waitingCount="0" stopTime="0.00" timeLoss="10.16" rerouteNo="1" devices="tripinfo_C2_1.5 routing_C2_1.5" vType="car" speedFactor="1.05" vaporized=""/>
    <tripinfo id="D1_1.8" depart="423.85" departLane="140483224#1_1" departPos="5.10" departPosLat="0.00" departSpeed="27.19" departDelay="0.00" arrival="499.65" arrivalLane="-793339796#2_2" arrivalPos="83.13" arrivalPosLat="0.00" arrivalSpeed="27.18" duration="75.80" routeLength="1648.47" waitingTime="0.00" waitingCount="0" stopTime="0.00" timeLoss="12.78" rerouteNo="1" devices="tripinfo_D1_1.8 routing_D1_1.8" vType="car" speedFactor="0.98" vaporized=""/>
    <personinfo id="pf_1.9" depart="324.00" type="ped" speedFactor="0.86" duration="176.30" waitingTime="35.10" timeLoss="49.06" traveltime="176.30">
        <walk depart="324.00" departPos="25.00" arrival="500.30" arrivalPos="7.46" duration="176.30" routeLength="151.44" timeLoss="49.06" maxSpeed="1.19" waitingTime="35.10"/>
    </personinfo>
    <tripinfo id="A1_1.9" depart="411.25" departLane="-793339796#2_1" departPos="2.30" departPosLat="0.00" departSpeed="28.30" departDelay="0.00" arrival="501.25" arrivalLane="-145894807#0_1" arrivalPos="260.97" arrivalPosLat="0.00" arrivalSpeed="8.46" duration="90.00" routeLength="1060.25" waitingTime="0.00" waitingCount="0" stopTime="0.00" timeLoss="2.06" rerouteNo="1" devices="tripinfo_A1_1.9 routing_A1_1.9" vType="motorcycle" speedFactor="1.02" vaporized=""/>
    <personinfo id="pf_1.11" depart="396.00" type="ped" speedFactor="1.03" duration="118.05" waitingTime="0.00" timeLoss="11.81" traveltime="118.05">