<?xml version="1.0" encoding="UTF-8"?>

<!-- generated on 2025-12-01 18:52:07 by Eclipse SUMO sumo Version 1.24.0
<sumoConfiguration xmlns:xsi="http://www.w3.org/2001/XMLSchema-instance" xsi:noNamespaceSchemaLocation="http://sumo.dlr.de/xsd/sumoConfiguration.xsd">

    <input>
        <net-file value="Olivarez_traci\network/map1.net.xml"/>
        <route-files value="Olivarez_traci\demand/flows_traffic_jam.rou.xml"/>
        <additional-files value="Olivarez_traci\additionals/map.poly.xml,Olivarez_traci\ additionals/detectors.add.xml"/>
    </input>

    <output>
        <tripinfo-output value="Olivarez_traci\output_DDPG\SD_DDPG_trips.xml"/>
        <statistic-output value="Olivarez_traci\output_DDPG\SD_DDPG_stats.xml"/>
    </output>

    <time>
        <begin value="0"/>
        <end value="10800"/>
        <step-length value="0.05"/>
    </time>

    <processing>
        <lateral-resolution value="0.1"/>
        <collision.action value="none"/>
        <collision.check-junctions value="false"/>
        <collision.mingap-factor value="0"/>
    </processing>

    <report>
        <no-warnings value="true"/>
    </report>

    <traci_server>
        <remote-port value="49694"/>
    </traci_server>

    <gui_only>
        <delay value="0"/>
    </gui_only>

</sumoConfiguration>
-->

<tripinfos xmlns:xsi="http://www.w3.org/2001/XMLSchema-instance" xsi:noNamespaceSchemaLocation="http://sumo.dlr.de/xsd/tripinfo_file.xsd">
    <personinfo id="pf_2.0" depart="0.00" type="ped" speedFactor="0.98" duration="25.15" waitingTime="0.00" timeLoss="2.51" traveltime="25.15">
        <walk depart="0.00" departPos="15.09" arrival="25.15" arrivalPos="3.44" duration="25.15" routeLength="30.72" timeLoss="2.51" maxSpeed="1.36" waitingTime="0.00"/>
    </personinfo>
    <personinfo id="pf_2.1" depart="9.00" type="ped" speedFactor="1.03" duration="23.75" waitingTime="0.00" timeLoss="2.32" traveltime="23.75">
        <walk depart="9.00" departPos="15.09" arrival="32.75" arrivalPos="3.44" duration="23.75" routeLength="30.72" timeLoss="2.32" maxSpeed="1.43" waitingTime="0.00"/>
    </personinfo>
    <personinfo id="pf_2.2" depart="18.00" type="ped" speedFactor="1.02" duration="24.10" waitingTime="0.00" timeLoss="2.38" traveltime="24.10">
        <walk depart="18.00" departPos="15.09" arrival="42.10" arrivalPos="3.44" duration="24.10" routeLength="30.72" timeLoss="2.38" maxSpeed="1.41" waitingTime="0.00"/>
    </personinfo>
    <tripinfo id="D3_1.0" depart="7.65" departLane="140483224#1_2" departPos="8.10" departPosLat="0.00" departSpeed="27.78" departDelay="0.00" arrival="70.80" arrivalLane="-440471861#0_2" arrivalPos="31.52" arrivalPosLat="0.00" arrivalSpeed="21.52" duration="63.15" routeLength="1064.97" waitingTime="0.00" waitingCount="0" stopTime="0.00" timeLoss="23.29" rerouteNo="1" devices="tripinfo_D3_1.0 routing_D3_1.0" vType="jeep" speedFactor="1.00" vaporized=""/>
    <tripinfo id="A2_1.1" depart="8.20" departLane="-793339796#2_2" departPos="2.30" departPosLat="0.00" departSpeed="24.59" departDelay="0.00" arrival="72.00" arrivalLane="-440471861#0_2" arrivalPos="31.52" arrivalPosLat="-0.00" arrivalSpeed="24.53" duration="63.80" routeLength="1084.07" waitingTime="2.25" waitingCount="1" stopTime="0.00" timeLoss="19.71" rerouteNo="1" devices="tripinfo_A2_1.1 routing_A2_1.1" vType="motorcycle" speedFactor="0.89" vaporized=""/>
    <tripinfo id="A2_1.0" depart="4.45" departLane="-793339796#2_1" departPos="5.10" departPosLat="0.00" departSpeed="26.27" departDelay="0.00" arrival="72.15" arrivalLane="-440471861#0_1" arrivalPos="31.52" arrivalPosLat="0.00" arrivalSpeed="30.25" duration="67.70" routeLength="1081.27" waitingTime="0.00" waitingCount="0" stopTime="0.00" timeLoss="31.96" rerouteNo="1" devices="tripinfo_A2_1.0 routing_A2_1.0" vType="car" speedFactor="1.09" vaporized=""/>
    <tripinfo id="A2_1.3" depart="27.05" departLane="-793339796#2_1" departPos="2.30" departPosLat="0.00" departSpeed="29.85" departDelay="0.00" arrival="83.00" arrivalLane="-440471861#0_2" arrivalPos="31.52" arrivalPosLat="0.00" arrivalSpeed="29.76" duration="55.95" routeLength="1084.07" waitingTime="1.55" waitingCount="1" stopTime="0.00" timeLoss="19.62" rerouteNo="1" devices="tripinfo_A2_1.3 routing_A2_1.3" vType="motorcycle" speedFactor="1.07" vaporized=""/>
    <tripinfo id="D1_1.0" depart="0.60" departLane="140483224#1_1" departPos="2.30" departPosLat="0.00" departSpeed="23.35" departDelay="0.00" arrival="90.60" arrivalLane="-793339796#2_2" arrivalPos="82.50" arrivalPosLat="0.00" arrivalSpeed="23.24" duration="90.00" routeLength="1651.18" waitingTime="5.70" waitingCount="1" stopTime="0.00" timeLoss="16.53" rerouteNo="1" devices="tripinfo_D1_1.0 routing_D1_1.0" vType="motorcycle" speedFactor="0.84" vaporized=""/>
    <tripinfo id="A3_1.0" depart="15.50" departLane="-793339796#2_2" departPos="8.10" departPosLat="0.00" departSpeed="24.21" departDelay="0.00" arrival="97.70" arrivalLane="-140483224#1_2" arrivalPos="64.04" arrivalPosLat="0.00" arrivalSpeed="27.75" duration="82.20" routeLength="1077.94" waitingTime="2.45" waitingCount="1" stopTime="0.00" timeLoss="41.88" rerouteNo="1" devices="tripinfo_A3_1.0 routing_A3_1.0" vType="jeep" speedFactor="1.00" vaporized=""/>
    <tripinfo id="A2_1.2" depart="20.70" departLane="-793339796#2_1" departPos="8.10" departPosLat="0.00" departSpeed="24.29" departDelay="0.00" arrival="100.30" arrivalLane="-440471861#0_1" arrivalPos="31.52" arrivalPosLat="-0.00" arrivalSpeed="21.11" duration="79.60" routeLength="1078.27" waitingTime="0.00" waitingCount="0" stopTime="0.00" timeLoss="40.78" rerouteNo="1" devices="tripinfo_A2_1.2 routing_A2_1.2" vType="jeep" speedFactor="1.00" vaporized=""/>
    <personinfo id="pf_4.0" depart="0.00" type="ped" speedFactor="1.14" duration="103.85" waitingTime="0.00" timeLoss="10.21" traveltime="103.85">
        <walk depart="0.00" departPos="25.00" arrival="50.60" arrivalPos="29.11" duration="50.60" routeLength="72.15" timeLoss="5.06" maxSpeed="1.58" waitingTime="0.00"/>
        <walk depart="50.60" departPos="29.11" arrival="103.85" arrivalPos="29.05" duration="53.25" routeLength="76.20" timeLoss="5.15" maxSpeed="1.58" waitingTime="0.00"/>
    </personinfo>
    <personinfo id="pf_2.3" depart="27.00" type="ped" speedFactor="1.09" duration="89.90" waitingTime="67.50" timeLoss="69.60" traveltime="89.90">
        <walk depart="27.00" departPos="15.09" arrival="116.90" arrivalPos="3.44" duration="89.90" routeLength="30.72" timeLoss="69.60" maxSpeed="1.51" waitingTime="67.50"/>
    </personinfo>
    <personinfo id="pf_2.4" depart="36.00" type="ped" speedFactor="1.10" duration="80.90" waitingTime="58.40" timeLoss="60.79" traveltime="80.90">
        <walk depart="36.00" departPos="15.09" arrival="116.90" arrivalPos="3.44" duration="80.90" routeLength="30.72" timeLoss="60.79" maxSpeed="1.53" waitingTime="58.40"/>
    </personinfo>
    <personinfo id="pf_2.8" depart="72.00" type="ped" speedFactor="1.01" duration="46.75" waitingTime="22.45" timeLoss="24.95" traveltime="46.75">
        <walk depart="72.00" departPos="15.09" arrival="118.75" arrivalPos="3.44" duration="46.75" routeLength="30.72" timeLoss="24.95" maxSpeed="1.41" waitingTime="22.45"/>
    </personinfo>
    <personinfo id="pf_2.9" depart="81.00" type="ped" speedFactor="0.99" duration="38.00" waitingTime="13.30" timeLoss="15.73" traveltime="38.00">
        <walk depart="81.00" departPos="15.09" arrival="119.00" arrivalPos="3.44" duration="38.00" routeLength="30.72" timeLoss="15.73" maxSpeed="1.38" waitingTime="13.30"/>
    </personinfo>
    <personinfo id="pf_2.5" depart="45.00" type="ped" speedFactor="0.95" duration="74.00" waitingTime="48.40" timeLoss="50.79" traveltime="74.00">
        <walk depart="45.00" departPos="15.09" arrival="119.00" arrivalPos="3.44" duration="74.00" routeLength="30.72" timeLoss="50.79" maxSpeed="1.32" waitingTime="48.40"/>
    </personinfo>
    <personinfo id="pf_2.10" depart="90.00" type="ped" speedFactor="1.10" duration="29.50" waitingTime="6.00" timeLoss="9.47" traveltime="29.50">
        <walk depart="90.00" departPos="15.09" arrival="119.50" arrivalPos="3.44" duration="29.50" routeLength="30.72" timeLoss="9.47" maxSpeed="1.53" waitingTime="6.00"/>
    </personinfo>
    <personinfo id="pf_2.6" depart="54.00" type="ped" speedFactor="0.96" duration="66.75" waitingTime="41.15" timeLoss="43.69" traveltime="66.75">
        <walk depart="54.00" departPos="15.09" arrival="120.75" arrivalPos="3.44" duration="66.75" routeLength="30.72" timeLoss="43.69" maxSpeed="1.33" waitingTime="41.15"/>
    </personinfo>
    <personinfo id="pf_2.7" depart="63.00" type="ped" speedFactor="0.86" duration="58.70" waitingTime="30.10" timeLoss="32.99" traveltime="58.70">
        <walk depart="63.00" departPos="15.09" arrival="121.70" arrivalPos="3.44" duration="58.70" routeLength="30.72" timeLoss="32.99" maxSpeed="1.19" waitingTime="30.10"/>
    </personinfo>
    <personinfo id="pf_2.11" depart="99.00" type="ped" speedFactor="0.98" duration="25.20" waitingTime="0.00" timeLoss="2.57" traveltime="25.20">
        <walk depart="99.00" departPos="15.09" arrival="124.20" arrivalPos="3.44" duration="25.20" routeLength="30.72" timeLoss="2.57" maxSpeed="1.36" waitingTime="0.00"/>
    </personinfo>
    <personinfo id="pf_4.1" depart="9.00" type="ped" speedFactor="1.00" duration="120.00" waitingTime="1.35" timeLoss="12.96" traveltime="120.00">
        <walk depart="9.00" departPos="25.00" arrival="66.65" arrivalPos="29.11" duration="57.65" routeLength="72.15" timeLoss="5.59" maxSpeed="1.39" waitingTime="0.00"/>
        <walk depart="66.65" departPos="29.11" arrival="129.00" arrivalPos="29.05" duration="62.35" routeLength="76.20" timeLoss="7.37" maxSpeed="1.39" waitingTime="1.35"/>
    </personinfo>
    <personinfo id="pf_2.12" depart="108.00" type="ped" speedFactor="0.97" duration="25.35" waitingTime="0.00" timeLoss="2.50" traveltime="25.35">
        <walk depart="108.00" departPos="15.09" arrival="133.35" arrivalPos="3.44" duration="25.35" routeLength="30.72" timeLoss="2.50" maxSpeed="1.34" waitingTime="0.00"/>
    </personinfo>
    <personinfo id="pf_4.2" depart="18.00" type="ped" speedFactor="0.98" duration="122.15" waitingTime="1.30" timeLoss="13.19" traveltime="122.15">
        <walk depart="18.00" departPos="25.00" arrival="78.10" arrivalPos="29.11" duration="60.10" routeLength="72.15" timeLoss="7.11" maxSpeed="1.36" waitingTime="1.30"/>
        <walk depart="78.10" departPos="29.11" arrival="140.15" arrivalPos="29.05" duration="62.05" routeLength="76.20" timeLoss="6.08" maxSpeed="1.36" waitingTime="0.00"/>
    </personinfo>
    <personinfo id="pf_4.3" depart="27.00" type="ped" speedFactor="1.02" duration="116.50" waitingTime="0.00" timeLoss="11.64" traveltime="116.50">
        <walk depart="27.00" departPos="25.00" arrival="83.75" arrivalPos="29.11" duration="56.75" routeLength="72.15" timeLoss="5.75" maxSpeed="1.41" waitingTime="0.00"/>
        <walk depart="83.75" departPos="29.11" arrival="143.50" arrivalPos="29.05" duration="59.75" routeLength="76.20" timeLoss="5.89" maxSpeed="1.41" waitingTime="0.00"/>
    </personinfo>
    <personinfo id="pf_2.13" depart="117.00" type="ped" speedFactor="0.80" duration="30.60" waitingTime="0.00" timeLoss="3.06" traveltime="30.60">
        <walk depart="117.00" departPos="15.09" arrival="147.60" arrivalPos="3.44" duration="30.60" routeLength="30.72" timeLoss="3.06" maxSpeed="1.12" waitingTime="0.00"/>
    </personinfo>
    <personinfo id="pf_2.14" depart="126.00" type="ped" speedFactor="1.00" duration="24.50" waitingTime="0.00" timeLoss="2.40" traveltime="24.50">
        <walk depart="126.00" departPos="15.09" arrival="150.50" arrivalPos="3.44" duration="24.50" routeLength="30.72" timeLoss="2.40" maxSpeed="1.39" waitingTime="0.00"/>
    </personinfo>
    <personinfo id="pf_4.4" depart="36.00" type="ped" speedFactor="0.98" duration="120.80" waitingTime="0.00" timeLoss="12.04" traveltime="120.80">
        <walk depart="36.00" departPos="25.00" arrival="94.65" arrivalPos="29.11" duration="58.65" routeLength="72.15" timeLoss="5.76" maxSpeed="1.36" waitingTime="0.00"/>
        <walk depart="94.65" departPos="29.11" arrival="156.80" arrivalPos="29.05" duration="62.15" routeLength="76.20" timeLoss="6.29" maxSpeed="1.36" waitingTime="0.00"/>
    </personinfo>
    <tripinfo id="C3_1.1" depart="23.60" departLane="440471861#0_1" departPos="5.10" departPosLat="0.00" departSpeed="28.05" departDelay="0.00" arrival="157.90" arrivalLane="-140483224#1_1" arrivalPos="64.04" arrivalPosLat="0.00" arrivalSpeed="28.04" duration="134.30" routeLength="1052.78" waitingTime="58.35" waitingCount="2" stopTime="0.00" timeLoss="95.39" rerouteNo="1" devices="tripinfo_C3_1.1 routing_C3_1.1" vType="car" speedFactor="1.01" vaporized=""/>
    <personinfo id="pf_4.6" depart="54.00" type="ped" speedFactor="1.13" duration="104.85" waitingTime="0.00" timeLoss="10.55" traveltime="104.85">
        <walk depart="54.00" departPos="25.00" arrival="105.05" arrivalPos="29.11" duration="51.05" routeLength="72.15" timeLoss="5.19" maxSpeed="1.57" waitingTime="0.00"/>
        <walk depart="105.05" departPos="29.11" arrival="158.85" arrivalPos="29.05" duration="53.80" routeLength="76.20" timeLoss="5.36" maxSpeed="1.57" waitingTime="0.00"/>
    </personinfo>
    <tripinfo id="C3_1.4" depart="78.25" departLane="440471861#0_1" departPos="5.10" departPosLat="0.00" departSpeed="27.76" departDelay="0.00" arrival="159.10" arrivalLane="-140483224#1_1" arrivalPos="64.04" arrivalPosLat="0.00" arrivalSpeed="27.74" duration="80.85" routeLength="1052.78" waitingTime="8.45" waitingCount="2" stopTime="0.00" timeLoss="41.57" rerouteNo="1" devices="tripinfo_C3_1.4 routing_C3_1.4" vType="car" speedFactor="1.00" vaporized=""/>
    <tripinfo id="C3_1.0" depart="11.40" departLane="440471861#0_1" departPos="2.30" departPosLat="0.00" departSpeed="23.68" departDelay="0.00" arrival="161.75" arrivalLane="-140483224#1_2" arrivalPos="64.04" arrivalPosLat="0.00" arrivalSpeed="23.63" duration="150.35" routeLength="1055.58" waitingTime="84.20" waitingCount="2" stopTime="0.00" timeLoss="104.18" rerouteNo="1" devices="tripinfo_C3_1.0 routing_C3_1.0" vType="tricycle" speedFactor="0.85" vaporized=""/>
    <tripinfo id="C3_1.2" depart="43.55" departLane="440471861#0_1" departPos="5.10" departPosLat="0.00" departSpeed="26.48" departDelay="0.00" arrival="164.15" arrivalLane="-140483224#1_2" arrivalPos="64.04" arrivalPosLat="0.00" arrivalSpeed="26.46" duration="120.60" routeLength="1052.78" waitingTime="26.25" waitingCount="3" stopTime="0.00" timeLoss="79.43" rerouteNo="1" devices="tripinfo_C3_1.2 routing_C3_1.2" vType="car" speedFactor="0.95" vaporized=""/>
    <tripinfo id="C3_1.3" depart="54.65" departLane="440471861#0_1" departPos="7.20" departPosLat="0.00" departSpeed="25.35" departDelay="0.00" arrival="169.60" arrivalLane="-140483224#1_2" arrivalPos="64.04" arrivalPosLat="0.00" arrivalSpeed="25.35" duration="114.95" routeLength="1050.68" waitingTime="26.00" waitingCount="3" stopTime="0.00" timeLoss="72.05" rerouteNo="1" devices="tripinfo_C3_1.3 routing_C3_1.3" vType="truck" speedFactor="0.91" vaporized=""/>
    <tripinfo id="D3_1.1" depart="89.80" departLane="140483224#1_2" departPos="5.10" departPosLat="0.00" departSpeed="32.99" departDelay="0.00" arrival="173.85" arrivalLane="-440471861#0_2" arrivalPos="31.52" arrivalPosLat="0.00" arrivalSpeed="30.78" duration="84.05" routeLength="1067.97" waitingTime="24.55" waitingCount="1" stopTime="0.00" timeLoss="50.37" rerouteNo="1" devices="tripinfo_D3_1.1 routing_D3_1.1" vType="car" speedFactor="1.19" vaporized=""/>
    <tripinfo id="D3_1.2" depart="100.85" departLane="140483224#1_2" departPos="5.10" departPosLat="0.00" departSpeed="27.91" departDelay="0.00" arrival="177.10" arrivalLane="-440471861#0_2" arrivalPos="31.52" arrivalPosLat="0.00" arrivalSpeed="27.88" duration="76.25" routeLength="1067.97" waitingTime="7.40" waitingCount="1" stopTime="0.00" timeLoss="36.45" rerouteNo="1" devices="tripinfo_D3_1.2 routing_D3_1.2" vType="car" speedFactor="1.00" vaporized=""/>
    <personinfo id="pf_4.8" depart="72.00" type="ped" speedFactor="1.05" duration="112.75" waitingTime="0.10" timeLoss="11.32" traveltime="112.75">
        <walk depart="72.00" departPos="25.00" arrival="126.90" arrivalPos="29.11" duration="54.90" routeLength="72.15" timeLoss="5.57" maxSpeed="1.46" waitingTime="0.10"/>
        <walk depart="126.90" departPos="29.11" arrival="184.75" arrivalPos="29.05" duration="57.85" routeLength="76.20" timeLoss="5.75" maxSpeed="1.46" waitingTime="0.00"/>
    </personinfo>
    <tripinfo id="C2_1.0" depart="20.15" departLane="440471861#0_2" departPos="5.10" departPosLat="0.00" departSpeed="25.00" departDelay="0.00" arrival="185.35" arrivalLane="-145894807#0_1" arrivalPos="260.95" arrivalPosLat="0.00" arrivalSpeed="7.45" duration="165.20" routeLength="1082.07" waitingTime="51.70" waitingCount="2" stopTime="0.00" timeLoss="70.49" rerouteNo="1" devices="tripinfo_C2_1.0 routing_C2_1.0" vType="car" speedFactor="0.90" vaporized=""/>
    <tripinfo id="C2_1.1" depart="27.30" departLane="440471861#0_2" departPos="2.30" departPosLat="0.00" departSpeed="29.87" departDelay="0.00" arrival="186.85" arrivalLane="-145894807#0_1" arrivalPos="260.95" arrivalPosLat="0.00" arrivalSpeed="8.94" duration="159.55" routeLength="1084.87" waitingTime="47.50" waitingCount="1" stopTime="0.00" timeLoss="80.15" rerouteNo="1" devices="tripinfo_C2_1.1 routing_C2_1.1" vType="motorcycle" speedFactor="1.08" vaporized=""/>
    <tripinfo id="D3_1.5" depart="115.65" departLane="140483224#1_2" departPos="5.10" departPosLat="0.00" departSpeed="26.94" departDelay="0.00" arrival="186.85" arrivalLane="-440471861#0_1" arrivalPos="31.52" arrivalPosLat="-0.00" arrivalSpeed="26.90" duration="71.20" routeLength="1067.97" waitingTime="0.65" waitingCount="1" stopTime="0.00" timeLoss="29.97" rerouteNo="1" devices="tripinfo_D3_1.5 routing_D3_1.5" vType="car" speedFactor="0.97" vaporized=""/>
    <personinfo id="pf_4.7" depart="63.00" type="ped" speedFactor="0.96" duration="124.05" waitingTime="0.00" timeLoss="12.73" traveltime="124.05">
        <walk depart="63.00" departPos="25.00" arrival="123.15" arrivalPos="29.11" duration="60.15" routeLength="72.15" timeLoss="6.01" maxSpeed="1.33" waitingTime="0.00"/>
        <walk depart="123.15" departPos="29.11" arrival="187.05" arrivalPos="29.05" duration="63.90" routeLength="76.20" timeLoss="6.72" maxSpeed="1.33" waitingTime="0.00"/>
    </personinfo>
    <personinfo id="pf_4.9" depart="81.00" type="ped" speedFactor="1.11" duration="106.45" waitingTime="0.00" timeLoss="10.60" traveltime="106.45">
        <walk depart="81.00" departPos="25.00" arrival="132.80" arrivalPos="29.11" duration="51.80" routeLength="72.15" timeLoss="5.18" maxSpeed="1.55" waitingTime="0.00"/>
        <walk depart="132.80" departPos="29.11" arrival="187.45" arrivalPos="29.05" duration="54.65" routeLength="76.20" timeLoss="5.41" maxSpeed="1.55" waitingTime="0.00"/>
    </personinfo>
    <tripinfo id="D3_1.3" depart="103.40" departLane="140483224#1_2" departPos="8.10" departPosLat="0.00" departSpeed="27.78" departDelay="0.00" arrival="188.30" arrivalLane="-440471861#0_2" arrivalPos="31.52" arrivalPosLat="0.00" arrivalSpeed="21.41" duration="84.90" routeLength="1064.97" waitingTime="9.55" waitingCount="1" stopTime="0.00" timeLoss="45.03" rerouteNo="1" devices="tripinfo_D3_1.3 routing_D3_1.3" vType="jeep" speedFactor="1.00" vaporized=""/>
    <personinfo id="pf_4.5" depart="45.00" type="ped" speedFactor="0.83" duration="143.90" waitingTime="1.15" timeLoss="15.32" traveltime="143.90">
        <walk depart="45.00" departPos="25.00" arrival="114.45" arrivalPos="29.11" duration="69.45" routeLength="72.15" timeLoss="6.92" maxSpeed="1.15" waitingTime="0.00"/>
        <walk depart="114.45" departPos="29.11" arrival="188.90" arrivalPos="29.05" duration="74.45" routeLength="76.20" timeLoss="8.41" maxSpeed="1.15" waitingTime="1.15"/>
    </personinfo>
    <tripinfo id="D3_1.4" depart="106.35" departLane="140483224#1_2" departPos="5.10" departPosLat="0.00" departSpeed="23.74" departDelay="0.00" arrival="189.60" arrivalLane="-440471861#0_2" arrivalPos="31.52" arrivalPosLat="0.00" arrivalSpeed="23.10" duration="83.25" routeLength="1067.97" waitingTime="6.10" waitingCount="1" stopTime="0.00" timeLoss="36.48" rerouteNo="1" devices="tripinfo_D3_1.4 routing_D3_1.4" vType="car" speedFactor="0.85" vaporized=""/>
    <tripinfo id="A1_1.0" depart="78.95" departLane="-793339796#2_1" departPos="7.20" departPosLat="0.00" departSpeed="19.34" departDelay="0.00" arrival="191.90" arrivalLane="-145894807#0_1" arrivalPos="260.95" arrivalPosLat="0.00" arrivalSpeed="8.72" duration="112.95" routeLength="1054.62" waitingTime="1.30" waitingCount="1" stopTime="0.00" timeLoss="27.70" rerouteNo="1" devices="tripinfo_A1_1.0 routing_A1_1.0" vType="truck" speedFactor="1.05" vaporized=""/>
    <personinfo id="pf_4.10" depart="90.00" type="ped" speedFactor="1.09" duration="108.60" waitingTime="0.00" timeLoss="10.66" traveltime="108.60">
        <walk depart="90.00" departPos="25.00" arrival="142.95" arrivalPos="29.11" duration="52.95" routeLength="72.15" timeLoss="5.32" maxSpeed="1.51" waitingTime="0.00"/>
        <walk depart="142.95" departPos="29.11" arrival="198.60" arrivalPos="29.05" duration="55.65" routeLength="76.20" timeLoss="5.34" maxSpeed="1.51" waitingTime="0.00"/>
    </personinfo>
    <personinfo id="pf_2.16" depart="144.00" type="ped" speedFactor="1.13" duration="56.40" waitingTime="34.60" timeLoss="36.76" traveltime="56.40">
        <walk depart="144.00" departPos="15.09" arrival="200.40" arrivalPos="3.44" duration="56.40" routeLength="30.72" timeLoss="36.76" maxSpeed="1.56" waitingTime="34.60"/>
    </personinfo>
    <personinfo id="pf_2.17" depart="153.00" type="ped" speedFactor="1.11" duration="47.75" waitingTime="25.40" timeLoss="27.79" traveltime="47.75">
        <walk depart="153.00" departPos="15.09" arrival="200.75" arrivalPos="3.44" duration="47.75" routeLength="30.72" timeLoss="27.79" maxSpeed="1.54" waitingTime="25.40"/>
    </personinfo>
    <personinfo id="pf_2.15" depart="135.00" type="ped" speedFactor="1.07" duration="66.20" waitingTime="43.20" timeLoss="45.53" traveltime="66.20">
        <walk depart="135.00" departPos="15.09" arrival="201.20" arrivalPos="3.44" duration="66.20" routeLength="30.72" timeLoss="45.53" maxSpeed="1.49" waitingTime="43.20"/>
    </personinfo>
    <tripinfo id="D2_1.0" depart="33.65" departLane="140483224#1_1" departPos="5.10" departPosLat="0.00" departSpeed="31.32" departDelay="0.00" arrival="201.80" arrivalLane="-145894807#0_1" arrivalPos="260.95" arrivalPosLat="0.00" arrivalSpeed="9.34" duration="168.15" routeLength="1092.76" waitingTime="79.00" waitingCount="2" stopTime="0.00" timeLoss="92.51" rerouteNo="1" devices="tripinfo_D2_1.0 routing_D2_1.0" vType="car" speedFactor="1.13" vaporized=""/>
    <personinfo id="pf_2.19" depart="171.00" type="ped" speedFactor="1.03" duration="31.35" waitingTime="7.55" timeLoss="9.96" traveltime="31.35">
        <walk depart="171.00" departPos="15.09" arrival="202.35" arrivalPos="3.44" duration="31.35" routeLength="30.72" timeLoss="9.96" maxSpeed="1.44" waitingTime="7.55"/>
    </personinfo>
    <personinfo id="pf_2.18" depart="162.00" type="ped" speedFactor="0.92" duration="41.50" waitingTime="14.90" timeLoss="17.57" traveltime="41.50">
        <walk depart="162.00" departPos="15.09" arrival="203.50" arrivalPos="3.44" duration="41.50" routeLength="30.72" timeLoss="17.57" maxSpeed="1.28" waitingTime="14.90"/>
    </personinfo>
    <tripinfo id="D3_1.6" depart="140.95" departLane="140483224#1_2" departPos="8.10" departPosLat="0.00" departSpeed="27.78" departDelay="0.00" arrival="204.35" arrivalLane="-440471861#0_2" arrivalPos="31.52" arrivalPosLat="0.00" arrivalSpeed="21.26" duration="63.40" routeLength="1064.97" waitingTime="0.00" waitingCount="0" stopTime="0.00" timeLoss="23.52" rerouteNo="1" devices="tripinfo_D3_1.6 routing_D3_1.6" vType="jeep" speedFactor="1.00" vaporized=""/>
    <tripinfo id="A2_1.4" depart="62.90" departLane="-793339796#2_1" departPos="2.30" departPosLat="0.00" departSpeed="27.20" departDelay="0.00" arrival="204.90" arrivalLane="-440471861#0_1" arrivalPos="31.52" arrivalPosLat="0.00" arrivalSpeed="27.16" duration="142.00" routeLength="1084.07" waitingTime="87.05" waitingCount="1" stopTime="0.00" timeLoss="102.15" rerouteNo="1" devices="tripinfo_A2_1.4 routing_A2_1.4" vType="motorcycle" speedFactor="0.98" vaporized=""/>
    <personinfo id="pf_2.20" depart="180.00" type="ped" speedFactor="0.94" duration="26.00" waitingTime="0.00" timeLoss="2.52" traveltime="26.00">
        <walk depart="180.00" departPos="15.09" arrival="206.00" arrivalPos="3.44" duration="26.00" routeLength="30.72" timeLoss="2.52" maxSpeed="1.31" waitingTime="0.00"/>
    </personinfo>
    <personinfo id="pf_2.21" depart="189.00" type="ped" speedFactor="1.05" duration="23.30" waitingTime="0.00" timeLoss="2.31" traveltime="23.30">
        <walk depart="189.00" departPos="15.09" arrival="212.30" arrivalPos="3.44" duration="23.30" routeLength="30.72" timeLoss="2.31" maxSpeed="1.46" waitingTime="0.00"/>
    </personinfo>
    <personinfo id="pf_4.11" depart="99.00" type="ped" speedFactor="0.99" duration="118.95" waitingTime="0.00" timeLoss="11.48" traveltime="118.95">
        <walk depart="99.00" departPos="25.00" arrival="156.90" arrivalPos="29.11" duration="57.90" routeLength="72.15" timeLoss="5.63" maxSpeed="1.38" waitingTime="0.00"/>
        <walk depart="156.90" departPos="29.11" arrival="217.95" arrivalPos="29.05" duration="61.05" routeLength="76.20" timeLoss="5.85" maxSpeed="1.38" waitingTime="0.00"/>
    </personinfo>
    <tripinfo id="D2_1.1" depart="46.85" departLane="140483224#1_1" departPos="5.10" departPosLat="0.00" departSpeed="25.46" departDelay="0.00" arrival="219.35" arrivalLane="-145894807#0_1" arrivalPos="260.95" arrivalPosLat="0.00" arrivalSpeed="8.77" duration="172.50" routeLength="1092.76" waitingTime="62.15" waitingCount="2" stopTime="0.00" timeLoss="91.71" rerouteNo="1" devices="tripinfo_D2_1.1 routing_D2_1.1" vType="car" speedFactor="1.06" vaporized=""/>
    <personinfo id="pf_2.22" depart="198.00" type="ped" speedFactor="0.97" duration="25.35" waitingTime="0.00" timeLoss="2.49" traveltime="25.35">
        <walk depart="198.00" departPos="15.09" arrival="223.35" arrivalPos="3.44" duration="25.35" routeLength="30.72" timeLoss="2.49" maxSpeed="1.34" waitingTime="0.00"/>
    </personinfo>
    <personinfo id="pf_4.12" depart="108.00" type="ped" speedFactor="1.03" duration="115.35" waitingTime="0.00" timeLoss="11.33" traveltime="115.35">
        <walk depart="108.00" departPos="25.00" arrival="164.05" arrivalPos="29.11" duration="56.05" routeLength="72.15" timeLoss="5.46" maxSpeed="1.43" waitingTime="0.00"/>
        <walk depart="164.05" departPos="29.11" arrival="223.35" arrivalPos="29.05" duration="59.30" routeLength="76.20" timeLoss="5.87" maxSpeed="1.43" waitingTime="0.00"/>
    </personinfo>
    <tripinfo id="A2_1.5" depart="64.95" departLane="-793339796#2_1" departPos="7.20" departPosLat="0.00" departSpeed="20.16" departDelay="0.00" arrival="224.70" arrivalLane="-440471861#0_1" arrivalPos="31.52" arrivalPosLat="0.00" arrivalSpeed="22.17" duration="159.75" routeLength="1079.17" waitingTime="52.60" waitingCount="4" stopTime="0.00" timeLoss="121.53" rerouteNo="1" devices="tripinfo_A2_1.5 routing_A2_1.5" vType="truck" speedFactor="1.02" vaporized=""/>
    <personinfo id="pf_2.23" depart="207.00" type="ped" speedFactor="1.01" duration="24.40" waitingTime="0.00" timeLoss="2.46" traveltime="24.40">
        <walk depart="207.00" departPos="15.09" arrival="231.40" arrivalPos="3.44" duration="24.40" routeLength="30.72" timeLoss="2.46" maxSpeed="1.40" waitingTime="0.00"/>
    </personinfo>
    <tripinfo id="D2_1.2" depart="67.40" departLane="140483224#1_1" departPos="8.10" departPosLat="0.00" departSpeed="27.78" departDelay="0.00" arrival="232.20" arrivalLane="-145894807#0_1" arrivalPos="260.95" arrivalPosLat="0.00" arrivalSpeed="8.32" duration="164.80" routeLength="1089.76" waitingTime="56.65" waitingCount="2" stopTime="0.00" timeLoss="79.61" rerouteNo="1" devices="tripinfo_D2_1.2 routing_D2_1.2" vType="jeep" speedFactor="1.00" vaporized=""/>
    <personinfo id="pf_4.13" depart="117.00" type="ped" speedFactor="1.03" duration="115.95" waitingTime="0.75" timeLoss="12.48" traveltime="115.95">
        <walk depart="117.00" departPos="25.00" arrival="173.80" arrivalPos="29.11" duration="56.80" routeLength="72.15" timeLoss="6.48" maxSpeed="1.43" waitingTime="0.75"/>
        <walk depart="173.80" departPos="29.11" arrival="232.95" arrivalPos="29.05" duration="59.15" routeLength="76.20" timeLoss="6.00" maxSpeed="1.43" waitingTime="0.00"/>
    </personinfo>
    <tripinfo id="D2_1.4" depart="111.60" departLane="140483224#1_1" departPos="2.30" departPosLat="0.00" departSpeed="29.77" departDelay="0.00" arrival="234.10" arrivalLane="-145894807#0_1" arrivalPos="260.95" arrivalPosLat="-1.20" arrivalSpeed="8.82" duration="122.50" routeLength="1095.56" waitingTime="8.35" waitingCount="1" stopTime="0.00" timeLoss="42.82" rerouteNo="1" devices="tripinfo_D2_1.4 routing_D2_1.4" vType="motorcycle" speedFactor="1.07" vaporized=""/>
    <tripinfo id="D2_1.3" depart="92.60" departLane="140483224#1_1" departPos="2.30" departPosLat="0.00" departSpeed="28.74" departDelay="0.00" arrival="234.20" arrivalLane="-145894807#0_1" arrivalPos="260.95" arrivalPosLat="0.19" arrivalSpeed="8.59" duration="141.60" routeLength="1095.56" waitingTime="26.80" waitingCount="1" stopTime="0.00" timeLoss="59.06" rerouteNo="1" devices="tripinfo_D2_1.3 routing_D2_1.3" vType="motorcycle" speedFactor="1.03" vaporized=""/>