<?xml version="1.0" encoding="UTF-8"?>

<!-- generated on 2025-11-13 21:43:49 by Eclipse SUMO sumo Version 1.24.0
<sumoConfiguration xmlns:xsi="http://www.w3.org/2001/XMLSchema-instance" xsi:noNamespaceSchemaLocation="http://sumo.dlr.de/xsd/sumoConfiguration.xsd">

    <input>
        <net-file value="Olivarez_traci\network/map.net.xml"/>
        <route-files value="Olivarez_traci\demand/demand.rou.xml"/>
        <additional-files value="Olivarez_traci\additionals/map.poly.xml,Olivarez_traci\ additionals/detectors.add.xml"/>
    </input>

    <output>
        <tripinfo-output value="Olivarez_traci\output_DDPG\SD_DDPG_trips.xml"/>
        <statistic-output value="Olivarez_traci\output_DDPG\SD_DDPG_stats.xml"/>
    </output>

    <time>
        <begin value="0"/>
        <end value="10800"/>
        <step-length value="0.05"/>
    </time>

    <processing>
        <lateral-resolution value="0.1"/>
        <collision.action value="none"/>
        <collision.check-junctions value="false"/>
        <collision.mingap-factor value="0"/>
    </processing>

    <report>
        <no-warnings value="true"/>
    </report>

    <traci_server>
        <remote-port value="50427"/>
    </traci_server>

    <gui_only>
        <delay value="0"/>
    </gui_only>

</sumoConfiguration>
-->

<tripinfos xmlns:xsi="http://www.w3.org/2001/XMLSchema-instance" xsi:noNamespaceSchemaLocation="http://sumo.dlr.de/xsd/tripinfo_file.xsd">
    <tripinfo id="D3_3.0" depart="7.65" departLane="140483224#1_1" departPos="7.20" departPosLat="0.00" departSpeed="26.66" departDelay="0.00" arrival="56.65" arrivalLane="-440471861#0_2" arrivalPos="31.49" arrivalPosLat="0.00" arrivalSpeed="26.64" duration="49.00" routeLength="1067.01" waitingTime="0.00" waitingCount="0" stopTime="0.00" timeLoss="7.48" rerouteNo="1" devices="tripinfo_D3_3.0 routing_D3_3.0" vType="truck" speedFactor="0.96" vaporized=""/>
    <tripinfo id="A2_3.0" depart="4.45" departLane="-793339796#2_1" departPos="2.30" departPosLat="0.00" departSpeed="28.13" departDelay="0.00" arrival="57.90" arrivalLane="-440471861#0_1" arrivalPos="31.49" arrivalPosLat="-0.00" arrivalSpeed="28.08" duration="53.45" routeLength="1084.69" waitingTime="10.00" waitingCount="1" stopTime="0.00" timeLoss="14.89" rerouteNo="1" devices="tripinfo_A2_3.0 routing_A2_3.0" vType="motorcycle" speedFactor="1.01" vaporized=""/>
    <tripinfo id="A2_3.1" depart="8.20" departLane="-793339796#2_1" departPos="5.10" departPosLat="0.00" departSpeed="26.86" departDelay="0.00" arrival="62.25" arrivalLane="-440471861#0_2" arrivalPos="31.49" arrivalPosLat="0.00" arrivalSpeed="26.81" duration="54.05" routeLength="1081.89" waitingTime="3.25" waitingCount="1" stopTime="0.00" timeLoss="13.73" rerouteNo="1" devices="tripinfo_A2_3.1 routing_A2_3.1" vType="car" speedFactor="0.97" vaporized=""/>
    <tripinfo id="D1_3.0" depart="0.60" departLane="140483224#1_1" departPos="5.10" departPosLat="0.00" departSpeed="30.28" departDelay="0.00" arrival="71.35" arrivalLane="-793339796#2_2" arrivalPos="83.13" arrivalPosLat="0.00" arrivalSpeed="30.24" duration="70.75" routeLength="1648.47" waitingTime="0.00" waitingCount="0" stopTime="0.00" timeLoss="14.17" rerouteNo="1" devices="tripinfo_D1_3.0 routing_D1_3.0" vType="car" speedFactor="1.09" vaporized=""/>
    <personinfo id="pf_5.0" depart="0.00" type="ped" speedFactor="1.06" duration="143.05" waitingTime="28.75" timeLoss="40.19" traveltime="143.05">
        <walk depart="0.00" departPos="25.00" arrival="143.05" arrivalPos="7.46" duration="143.05" routeLength="151.44" timeLoss="40.19" maxSpeed="1.47" waitingTime="28.75"/>
    </personinfo>
    <personinfo id="pf_5.2" depart="20.00" type="ped" speedFactor="1.01" duration="124.70" waitingTime="5.10" timeLoss="16.79" traveltime="124.70">
        <walk depart="20.00" departPos="25.00" arrival="144.70" arrivalPos="7.46" duration="124.70" routeLength="151.44" timeLoss="16.79" maxSpeed="1.40" waitingTime="5.10"/>
    </personinfo>
    <personinfo id="pf_5.3" depart="30.00" type="ped" speedFactor="1.08" duration="115.10" waitingTime="1.50" timeLoss="14.39" traveltime="115.10">
        <walk depart="30.00" departPos="25.00" arrival="145.10" arrivalPos="7.46" duration="115.10" routeLength="151.44" timeLoss="14.39" maxSpeed="1.50" waitingTime="1.50"/>
    </personinfo>
    <personinfo id="pf_5.1" depart="10.00" type="ped" speedFactor="0.94" duration="138.30" waitingTime="8.85" timeLoss="22.09" traveltime="138.30">
        <walk depart="10.00" departPos="25.00" arrival="148.30" arrivalPos="7.46" duration="138.30" routeLength="151.44" timeLoss="22.09" maxSpeed="1.30" waitingTime="8.85"/>
    </personinfo>
    <tripinfo id="A1_3.0" depart="42.00" departLane="-793339796#2_1" departPos="5.10" departPosLat="0.00" departSpeed="23.07" departDelay="0.00" arrival="152.80" arrivalLane="-145894807#0_1" arrivalPos="260.97" arrivalPosLat="0.00" arrivalSpeed="6.86" duration="110.80" routeLength="1057.45" waitingTime="0.00" waitingCount="0" stopTime="0.00" timeLoss="3.04" rerouteNo="1" devices="tripinfo_A1_3.0 routing_A1_3.0" vType="car" speedFactor="0.83" vaporized=""/>
    <tripinfo id="A1_3.1" depart="55.60" departLane="-793339796#2_1" departPos="5.10" departPosLat="0.00" departSpeed="25.48" departDelay="0.00" arrival="156.50" arrivalLane="-145894807#0_1" arrivalPos="260.97" arrivalPosLat="0.00" arrivalSpeed="7.60" duration="100.90" routeLength="1057.45" waitingTime="0.00" waitingCount="0" stopTime="0.00" timeLoss="3.31" rerouteNo="1" devices="tripinfo_A1_3.1 routing_A1_3.1" vType="car" speedFactor="0.92" vaporized=""/>
    <personinfo id="pf_5.4" depart="40.00" type="ped" speedFactor="1.03" duration="117.50" waitingTime="0.00" timeLoss="11.67" traveltime="117.50">
        <walk depart="40.00" departPos="25.00" arrival="157.50" arrivalPos="7.46" duration="117.50" routeLength="151.44" timeLoss="11.67" maxSpeed="1.43" waitingTime="0.00"/>
    </personinfo>
    <tripinfo id="C3_3.1" depart="23.60" departLane="440471861#0_1" departPos="2.30" departPosLat="0.00" departSpeed="22.24" departDelay="0.00" arrival="164.70" arrivalLane="-140483224#1_2" arrivalPos="64.17" arrivalPosLat="0.00" arrivalSpeed="22.11" duration="141.10" routeLength="1056.75" waitingTime="76.20" waitingCount="2" stopTime="0.00" timeLoss="92.20" rerouteNo="1" devices="tripinfo_C3_3.1 routing_C3_3.1" vType="motorcycle" speedFactor="0.80" vaporized=""/>
    <tripinfo id="A1_3.2" depart="71.05" departLane="-793339796#2_1" departPos="5.10" departPosLat="0.00" departSpeed="27.59" departDelay="0.00" arrival="164.80" arrivalLane="-145894807#0_1" arrivalPos="260.97" arrivalPosLat="0.00" arrivalSpeed="8.22" duration="93.75" routeLength="1057.45" waitingTime="0.00" waitingCount="0" stopTime="0.00" timeLoss="3.57" rerouteNo="1" devices="tripinfo_A1_3.2 routing_A1_3.2" vType="car" speedFactor="0.99" vaporized=""/>
    <tripinfo id="C3_3.2" depart="43.55" departLane="440471861#0_1" departPos="2.30" departPosLat="0.00" departSpeed="24.14" departDelay="0.00" arrival="168.45" arrivalLane="-140483224#1_2" arrivalPos="64.17" arrivalPosLat="0.00" arrivalSpeed="24.13" duration="124.90" routeLength="1056.75" waitingTime="52.80" waitingCount="3" stopTime="0.00" timeLoss="79.81" rerouteNo="1" devices="tripinfo_C3_3.2 routing_C3_3.2" vType="tricycle" speedFactor="0.87" vaporized=""/>
    <tripinfo id="C3_3.0" depart="11.40" departLane="440471861#0_1" departPos="7.20" departPosLat="0.00" departSpeed="27.60" departDelay="0.00" arrival="172.05" arrivalLane="-140483224#1_1" arrivalPos="64.17" arrivalPosLat="0.00" arrivalSpeed="27.60" duration="160.65" routeLength="1051.85" waitingTime="96.90" waitingCount="2" stopTime="0.00" timeLoss="121.41" rerouteNo="1" devices="tripinfo_C3_3.0 routing_C3_3.0" vType="truck" speedFactor="0.99" vaporized=""/>
    <tripinfo id="C3_3.3" depart="78.25" departLane="440471861#0_1" departPos="7.20" departPosLat="0.00" departSpeed="26.18" departDelay="0.00" arrival="173.00" arrivalLane="-140483224#1_2" arrivalPos="64.17" arrivalPosLat="0.00" arrivalSpeed="26.16" duration="94.75" routeLength="1051.85" waitingTime="17.90" waitingCount="3" stopTime="0.00" timeLoss="53.35" rerouteNo="1" devices="tripinfo_C3_3.3 routing_C3_3.3" vType="truck" speedFactor="0.94" vaporized=""/>
    <tripinfo id="C3_3.4" depart="104.00" departLane="440471861#0_1" departPos="8.10" departPosLat="0.00" departSpeed="29.14" departDelay="0.00" arrival="173.30" arrivalLane="-140483224#1_1" arrivalPos="64.17" arrivalPosLat="0.00" arrivalSpeed="29.08" duration="69.30" routeLength="1050.95" waitingTime="8.65" waitingCount="1" stopTime="0.00" timeLoss="32.12" rerouteNo="1" devices="tripinfo_C3_3.4 routing_C3_3.4" vType="jeep" speedFactor="1.05" vaporized=""/>
    <tripinfo id="D3_3.1" depart="100.85" departLane="140483224#1_1" departPos="12.10" departPosLat="0.00" departSpeed="27.78" departDelay="0.00" arrival="176.30" arrivalLane="-440471861#0_2" arrivalPos="31.49" arrivalPosLat="0.00" arrivalSpeed="27.76" duration="75.45" routeLength="1062.11" waitingTime="17.95" waitingCount="1" stopTime="0.00" timeLoss="35.76" rerouteNo="1" devices="tripinfo_D3_3.1 routing_D3_3.1" vType="bus" speedFactor="1.00" vaporized=""/>
    <tripinfo id="D3_3.2" depart="106.35" departLane="140483224#1_2" departPos="5.10" departPosLat="0.00" departSpeed="22.78" departDelay="0.00" arrival="179.65" arrivalLane="-440471861#0_2" arrivalPos="31.49" arrivalPosLat="0.00" arrivalSpeed="22.77" duration="73.30" routeLength="1069.11" waitingTime="6.25" waitingCount="1" stopTime="0.00" timeLoss="24.61" rerouteNo="1" devices="tripinfo_D3_3.2 routing_D3_3.2" vType="car" speedFactor="0.82" vaporized=""/>
    <tripinfo id="A1_3.3" depart="78.95" departLane="-793339796#2_1" departPos="7.20" departPosLat="0.00" departSpeed="27.00" departDelay="0.00" arrival="182.90" arrivalLane="-145894807#0_1" arrivalPos="260.97" arrivalPosLat="0.00" arrivalSpeed="8.07" duration="103.95" routeLength="1055.35" waitingTime="3.00" waitingCount="1" stopTime="0.00" timeLoss="11.92" rerouteNo="1" devices="tripinfo_A1_3.3 routing_A1_3.3" vType="truck" speedFactor="0.97" vaporized=""/>
    <tripinfo id="C2_3.0" depart="20.15" departLane="440471861#0_2" departPos="5.10" departPosLat="0.00" departSpeed="27.91" departDelay="0.00" arrival="185.00" arrivalLane="-145894807#0_1" arrivalPos="260.97" arrivalPosLat="0.00" arrivalSpeed="8.34" duration="164.85" routeLength="1099.91" waitingTime="68.85" waitingCount="1" stopTime="0.00" timeLoss="77.95" rerouteNo="1" devices="tripinfo_C2_3.0 routing_C2_3.0" vType="car" speedFactor="1.00" vaporized=""/>
    <tripinfo id="C1_3.1" depart="31.85" departLane="440471861#0_1" departPos="8.10" departPosLat="0.00" departSpeed="24.57" departDelay="0.00" arrival="200.05" arrivalLane="-793339796#2_2" arrivalPos="83.13" arrivalPosLat="0.00" arrivalSpeed="24.53" duration="168.20" routeLength="1651.03" waitingTime="70.40" waitingCount="3" stopTime="0.00" timeLoss="99.74" rerouteNo="1" devices="tripinfo_C1_3.1 routing_C1_3.1" vType="jeep" speedFactor="0.88" vaporized=""/>
    <tripinfo id="C1_3.0" depart="17.65" departLane="440471861#0_1" departPos="5.10" departPosLat="0.00" departSpeed="28.25" departDelay="0.00" arrival="202.30" arrivalLane="-793339796#2_1" arrivalPos="83.13" arrivalPosLat="0.00" arrivalSpeed="28.25" duration="184.65" routeLength="1654.03" waitingTime="84.50" waitingCount="2" stopTime="0.00" timeLoss="124.98" rerouteNo="1" devices="tripinfo_C1_3.0 routing_C1_3.0" vType="car" speedFactor="1.02" vaporized=""/>
    <tripinfo id="C1_3.3" depart="71.00" departLane="440471861#0_1" departPos="8.10" departPosLat="0.00" departSpeed="29.93" departDelay="0.00" arrival="204.85" arrivalLane="-793339796#2_2" arrivalPos="83.13" arrivalPosLat="0.00" arrivalSpeed="29.88" duration="133.85" routeLength="1651.03" waitingTime="31.35" waitingCount="2" stopTime="0.00" timeLoss="77.66" rerouteNo="1" devices="tripinfo_C1_3.3 routing_C1_3.3" vType="jeep" speedFactor="1.08" vaporized=""/>
    <tripinfo id="A2_3.2" depart="64.95" departLane="-793339796#2_1" departPos="5.10" departPosLat="0.00" departSpeed="29.90" departDelay="0.00" arrival="207.85" arrivalLane="-440471861#0_1" arrivalPos="31.49" arrivalPosLat="0.00" arrivalSpeed="29.88" duration="142.90" routeLength="1081.89" waitingTime="95.30" waitingCount="1" stopTime="0.00" timeLoss="106.68" rerouteNo="1" devices="tripinfo_A2_3.2 routing_A2_3.2" vType="car" speedFactor="1.08" vaporized=""/>
    <tripinfo id="D1_3.1" depart="37.25" departLane="140483224#1_1" departPos="2.30" departPosLat="0.00" departSpeed="28.98" departDelay="0.00" arrival="210.00" arrivalLane="-793339796#2_2" arrivalPos="83.13" arrivalPosLat="0.00" arrivalSpeed="28.94" duration="172.75" routeLength="1651.27" waitingTime="80.30" waitingCount="2" stopTime="0.00" timeLoss="113.51" rerouteNo="1" devices="tripinfo_D1_3.1 routing_D1_3.1" vType="tricycle" speedFactor="1.04" vaporized=""/>
    <tripinfo id="D1_3.3" depart="58.55" departLane="140483224#1_1" departPos="2.30" departPosLat="0.00" departSpeed="31.82" departDelay="0.00" arrival="211.00" arrivalLane="-793339796#2_2" arrivalPos="83.13" arrivalPosLat="0.00" arrivalSpeed="31.75" duration="152.45" routeLength="1651.27" waitingTime="66.30" waitingCount="1" stopTime="0.00" timeLoss="98.42" rerouteNo="1" devices="tripinfo_D1_3.3 routing_D1_3.3" vType="motorcycle" speedFactor="1.15" vaporized=""/>
    <tripinfo id="D1_3.2" depart="46.15" departLane="140483224#1_1" departPos="5.10" departPosLat="0.00" departSpeed="29.14" departDelay="0.00" arrival="212.30" arrivalLane="-793339796#2_2" arrivalPos="83.13" arrivalPosLat="-1.33" arrivalSpeed="29.12" duration="166.15" routeLength="1648.47" waitingTime="65.80" waitingCount="1" stopTime="0.00" timeLoss="107.35" rerouteNo="1" devices="tripinfo_D1_3.2 routing_D1_3.2" vType="car" speedFactor="1.05" vaporized=""/>
    <personinfo id="pf_5.6" depart="60.00" type="ped" speedFactor="1.05" duration="153.30" waitingTime="37.55" timeLoss="49.04" traveltime="153.30">
        <walk depart="60.00" departPos="25.00" arrival="213.30" arrivalPos="7.46" duration="153.30" routeLength="151.44" timeLoss="49.04" maxSpeed="1.45" waitingTime="37.55"/>
    </personinfo>
    <personinfo id="pf_5.10" depart="100.00" type="ped" speedFactor="1.09" duration="113.70" waitingTime="1.70" timeLoss="13.73" traveltime="113.70">
        <walk depart="100.00" departPos="25.00" arrival="213.70" arrivalPos="7.46" duration="113.70" routeLength="151.44" timeLoss="13.73" maxSpeed="1.51" waitingTime="1.70"/>
    </personinfo>
    <personinfo id="pf_5.8" depart="80.00" type="ped" speedFactor="0.94" duration="138.85" waitingTime="9.65" timeLoss="22.59" traveltime="138.85">
        <walk depart="80.00" departPos="25.00" arrival="218.85" arrivalPos="7.46" duration="138.85" routeLength="151.44" timeLoss="22.59" maxSpeed="1.30" waitingTime="9.65"/>
    </personinfo>
    <personinfo id="pf_5.5" depart="50.00" type="ped" speedFactor="0.83" duration="173.30" waitingTime="27.75" timeLoss="42.09" traveltime="173.30">
        <walk depart="50.00" departPos="25.00" arrival="223.30" arrivalPos="7.46" duration="173.30" routeLength="151.44" timeLoss="42.09" maxSpeed="1.15" waitingTime="27.75"/>
    </personinfo>
    <tripinfo id="A1_3.4" depart="125.65" departLane="-793339796#2_1" departPos="5.10" departPosLat="0.00" departSpeed="30.34" departDelay="0.00" arrival="223.50" arrivalLane="-145894807#0_1" arrivalPos="260.97" arrivalPosLat="0.00" arrivalSpeed="9.05" duration="97.85" routeLength="1057.45" waitingTime="9.40" waitingCount="1" stopTime="0.00" timeLoss="15.92" rerouteNo="1" devices="tripinfo_A1_3.4 routing_A1_3.4" vType="car" speedFactor="1.09" vaporized=""/>
    <personinfo id="pf_5.7" depart="70.00" type="ped" speedFactor="0.89" duration="153.75" waitingTime="15.60" timeLoss="30.68" traveltime="153.75">
        <walk depart="70.00" departPos="25.00" arrival="223.75" arrivalPos="7.46" duration="153.75" routeLength="151.44" timeLoss="30.68" maxSpeed="1.23" waitingTime="15.60"/>
    </personinfo>
    <tripinfo id="D2_3.0" depart="33.65" departLane="140483224#1_1" departPos="5.10" departPosLat="0.00" departSpeed="29.16" departDelay="0.00" arrival="228.40" arrivalLane="-145894807#0_1" arrivalPos="260.97" arrivalPosLat="0.00" arrivalSpeed="8.73" duration="194.75" routeLength="1109.87" waitingTime="95.70" waitingCount="3" stopTime="0.00" timeLoss="111.56" rerouteNo="1" devices="tripinfo_D2_3.0 routing_D2_3.0" vType="car" speedFactor="1.05" vaporized=""/>
    <personinfo id="pf_5.9" depart="90.00" type="ped" speedFactor="0.86" duration="141.15" waitingTime="0.00" timeLoss="13.91" traveltime="141.15">
        <walk depart="90.00" departPos="25.00" arrival="231.15" arrivalPos="7.46" duration="141.15" routeLength="151.44" timeLoss="13.91" maxSpeed="1.19" waitingTime="0.00"/>
    </personinfo>
    <tripinfo id="D2_3.1" depart="46.85" departLane="140483224#1_1" departPos="8.10" departPosLat="0.00" departSpeed="26.42" departDelay="0.00" arrival="231.15" arrivalLane="-145894807#0_1" arrivalPos="260.97" arrivalPosLat="0.00" arrivalSpeed="8.59" duration="184.30" routeLength="1106.87" waitingTime="76.85" waitingCount="3" stopTime="0.00" timeLoss="99.67" rerouteNo="1" devices="tripinfo_D2_3.1 routing_D2_3.1" vType="jeep" speedFactor="1.03" vaporized=""/>
    <personinfo id="pf_5.11" depart="110.00" type="ped" speedFactor="1.03" duration="121.55" waitingTime="0.00" timeLoss="15.31" traveltime="121.55">
        <walk depart="110.00" departPos="25.00" arrival="231.55" arrivalPos="7.46" duration="121.55" routeLength="151.44" timeLoss="15.31" maxSpeed="1.43" waitingTime="0.00"/>
    </personinfo>
    <tripinfo id="A3_3.0" depart="63.55" departLane="-793339796#2_2" departPos="8.10" departPosLat="0.00" departSpeed="31.19" departDelay="0.00" arrival="233.70" arrivalLane="-140483224#1_2" arrivalPos="64.17" arrivalPosLat="-0.00" arrivalSpeed="31.16" duration="170.15" routeLength="1078.73" waitingTime="117.20" waitingCount="2" stopTime="0.00" timeLoss="134.21" rerouteNo="1" devices="tripinfo_A3_3.0 routing_A3_3.0" vType="jeep" speedFactor="1.12" vaporized=""/>
    <tripinfo id="A3_3.1" depart="96.70" departLane="-793339796#2_2" departPos="5.10" departPosLat="0.00" departSpeed="26.44" departDelay="0.00" arrival="235.10" arrivalLane="-140483224#1_1" arrivalPos="64.17" arrivalPosLat="-0.00" arrivalSpeed="26.44" duration="138.40" routeLength="1081.73" waitingTime="65.60" waitingCount="3" stopTime="0.00" timeLoss="95.89" rerouteNo="1" devices="tripinfo_A3_3.1 routing_A3_3.1" vType="car" speedFactor="0.95" vaporized=""/>
    <personinfo id="pf_5.12" depart="120.00" type="ped" speedFactor="1.05" duration="115.75" waitingTime="0.00" timeLoss="11.62" traveltime="115.75">
        <walk depart="120.00" departPos="25.00" arrival="235.75" arrivalPos="7.46" duration="115.75" routeLength="151.44" timeLoss="11.62" maxSpeed="1.45" waitingTime="0.00"/>
    </personinfo>
    <tripinfo id="A3_3.2" depart="107.30" departLane="-793339796#2_2" departPos="5.10" departPosLat="0.00" departSpeed="26.33" departDelay="0.00" arrival="236.35" arrivalLane="-140483224#1_1" arrivalPos="64.17" arrivalPosLat="-0.00" arrivalSpeed="26.31" duration="129.05" routeLength="1081.73" waitingTime="47.55" waitingCount="4" stopTime="0.00" timeLoss="86.36" rerouteNo="1" devices="tripinfo_A3_3.2 routing_A3_3.2" vType="car" speedFactor="0.95" vaporized=""/>
    <personinfo id="pf_5.13" depart="130.00" type="ped" speedFactor="1.12" duration="108.15" waitingTime="0.00" timeLoss="11.05" traveltime="108.15">
        <walk depart="130.00" departPos="25.00" arrival="238.15" arrivalPos="7.46" duration="108.15" routeLength="151.44" timeLoss="11.05" maxSpeed="1.56" waitingTime="0.00"/>
    </personinfo>
    <tripinfo id="D2_3.2" depart="67.40" departLane="140483224#1_1" departPos="5.10" departPosLat="0.00" departSpeed="25.51" departDelay="0.00" arrival="240.00" arrivalLane="-145894807#0_1" arrivalPos="260.97" arrivalPosLat="0.00" arrivalSpeed="7.63" duration="172.60" routeLength="1109.87" waitingTime="57.20" waitingCount="1" stopTime="0.00" timeLoss="77.53" rerouteNo="1" devices="tripinfo_D2_3.2 routing_D2_3.2" vType="car" speedFactor="0.92" vaporized=""/>
    <tripinfo id="A3_3.3" depart="111.05" departLane="-793339796#2_2" departPos="8.10" departPosLat="0.00" departSpeed="28.05" departDelay="0.00" arrival="241.35" arrivalLane="-140483224#1_2" arrivalPos="64.17" arrivalPosLat="0.00" arrivalSpeed="28.03" duration="130.30" routeLength="1078.73" waitingTime="73.05" waitingCount="2" stopTime="0.00" timeLoss="90.35" rerouteNo="1" devices="tripinfo_A3_3.3 routing_A3_3.3" vType="jeep" speedFactor="1.01" vaporized=""/>
    <tripinfo id="D2_3.3" depart="92.60" departLane="140483224#1_1" departPos="8.10" departPosLat="0.00" departSpeed="27.48" departDelay="0.00" arrival="241.90" arrivalLane="-145894807#0_1" arrivalPos="260.97" arrivalPosLat="0.00" arrivalSpeed="8.20" duration="149.30" routeLength="1106.87" waitingTime="40.30" waitingCount="5" stopTime="0.00" timeLoss="61.12" rerouteNo="1" devices="tripinfo_D2_3.3 routing_D2_3.3" vType="jeep" speedFactor="0.99" vaporized=""/>
    <tripinfo id="D2_3.4" depart="111.60" departLane="140483224#1_1" departPos="7.20" departPosLat="0.00" departSpeed="25.81" departDelay="0.00" arrival="244.45" arrivalLane="-145894807#0_1" arrivalPos="260.97" arrivalPosLat="0.00" arrivalSpeed="7.72" duration="132.85" routeLength="1107.77" waitingTime="21.35" waitingCount="5" stopTime="0.00" timeLoss="38.93" rerouteNo="1" devices="tripinfo_D2_3.4 routing_D2_3.4" vType="truck" speedFactor="0.93" vaporized=""/>
    <tripinfo id="A1_3.5" depart="154.60" departLane="-793339796#2_1" departPos="2.30" departPosLat="0.00" departSpeed="29.54" departDelay="0.00" arrival="246.30" arrivalLane="-145894807#0_1" arrivalPos="260.97" arrivalPosLat="0.00" arrivalSpeed="8.79" duration="91.70" routeLength="1060.25" waitingTime="0.00" waitingCount="0" stopTime="0.00" timeLoss="7.41" rerouteNo="1" devices="tripinfo_A1_3.5 routing_A1_3.5" vType="motorcycle" speedFactor="1.06" vaporized=""/>
    <tripinfo id="B2_3.0" depart="6.95" departLane="-361257727#0_1" departPos="2.30" departPosLat="0.00" departSpeed="6.91" departDelay="0.00" arrival="250.15" arrivalLane="-440471861#0_1" arrivalPos="31.49" arrivalPosLat="0.00" arrivalSpeed="22.98" duration="243.20" routeLength="1417.09" waitingTime="95.20" waitingCount="1" stopTime="0.00" timeLoss="99.29" rerouteNo="1" devices="tripinfo_B2_3.0 routing_B2_3.0" vType="motorcycle" speedFactor="0.83" vaporized=""/>
    <tripinfo id="B2_3.1" depart="31.00" departLane="-361257727#0_1" departPos="5.10" departPosLat="0.00" departSpeed="6.52" departDelay="0.00" arrival="254.50" arrivalLane="-440471861#0_1" arrivalPos="31.49" arrivalPosLat="0.00" arrivalSpeed="21.71" duration="223.50" routeLength="1414.29" waitingTime="61.65" waitingCount="1" stopTime="0.00" timeLoss="71.49" rerouteNo="1" devices="tripinfo_B2_3.1 routing_B2_3.1" vType="car" speedFactor="0.78" vaporized=""/>
    <tripinfo id="B2_3.2" depart="56.70" departLane="-361257727#0_1" departPos="7.20" departPosLat="0.00" departSpeed="7.58" departDelay="0.00" arrival="258.90" arrivalLane="-440471861#0_2" arrivalPos="31.49" arrivalPosLat="0.00" arrivalSpeed="25.25" duration="202.20" routeLength="1412.19" waitingTime="53.40" waitingCount="1" stopTime="0.00" timeLoss="71.69" rerouteNo="1" devices="tripinfo_B2_3.2 routing_B2_3.2" vType="truck" speedFactor="0.91" vaporized=""/>
    <tripinfo id="B3_3.0" depart="63.85" departLane="-361257727#0_1" departPos="7.20" departPosLat="0.00" departSpeed="8.01" departDelay="0.00" arrival="259.95" arrivalLane="-140483224#1_1" arrivalPos="64.17" arrivalPosLat="0.00" arrivalSpeed="26.68" duration="196.10" routeLength="1425.01" waitingTime="51.45" waitingCount="1" stopTime="0.00" timeLoss="72.35" rerouteNo="1" devices="tripinfo_B3_3.0 routing_B3_3.0" vType="truck" speedFactor="0.96" vaporized=""/>
    <tripinfo id="B2_3.3" depart="65.70" departLane="-361257727#0_1" departPos="12.10" departPosLat="0.00" departSpeed="5.02" departDelay="1.10" arrival="261.45" arrivalLane="-440471861#0_1" arrivalPos="31.49" arrivalPosLat="0.00" arrivalSpeed="27.77" duration="195.75" routeLength="1407.29" waitingTime="49.90" waitingCount="1" stopTime="0.00" timeLoss="77.62" rerouteNo="1" devices="tripinfo_B2_3.3 routing_B2_3.3" vType="bus" speedFactor="1.00" vaporized=""/>
    <tripinfo id="A1_3.6" depart="165.50" departLane="-793339796#2_1" departPos="2.30" departPosLat="0.00" departSpeed="26.52" departDelay="0.00" arrival="261.45" arrivalLane="-145894807#0_1" arrivalPos="260.97" arrivalPosLat="0.00" arrivalSpeed="7.93" duration="95.95" routeLength="1060.25" waitingTime="0.00" waitingCount="0" stopTime="0.00" timeLoss="2.04" rerouteNo="1" devices="tripinfo_A1_3.6 routing_A1_3.6" vType="motorcycle" speedFactor="0.95" vaporized=""/>
    <tripinfo id="B2_3.4" depart="75.15" departLane="-361257727#0_1" departPos="5.10" departPosLat="0.00" departSpeed="9.05" departDelay="0.00" arrival="262.85" arrivalLane="-440471861#0_1" arrivalPos="31.49" arrivalPosLat="0.00" arrivalSpeed="30.16" duration="187.70" routeLength="1414.29" waitingTime="48.65" waitingCount="1" stopTime="0.00" timeLoss="78.21" rerouteNo="1" devices="tripinfo_B2_3.4 routing_B2_3.4" vType="car" speedFactor="1.09" vaporized=""/>
    <tripinfo id="B2_3.5" depart="123.90" departLane="-361257727#0_1" departPos="5.10" departPosLat="0.00" departSpeed="7.56" departDelay="0.00" arrival="268.45" arrivalLane="-440471861#0_1" arrivalPos="31.49" arrivalPosLat="0.00" arrivalSpeed="25.15" duration="144.55" routeLength="1414.29" waitingTime="1.55" waitingCount="1" stopTime="0.00" timeLoss="13.39" rerouteNo="1" devices="tripinfo_B2_3.5 routing_B2_3.5" vType="car" speedFactor="0.91" vaporized=""/>
    <tripinfo id="D1_3.4" depart="118.00" departLane="140483224#1_1" departPos="5.10" departPosLat="0.00" departSpeed="28.09" departDelay="0.00" arrival="270.05" arrivalLane="-793339796#2_2" arrivalPos="83.13" arrivalPosLat="0.00" arrivalSpeed="28.07" duration="152.05" routeLength="1648.47" waitingTime="49.95" waitingCount="2" stopTime="0.00" timeLoss="91.01" rerouteNo="1" devices="tripinfo_D1_3.4 routing_D1_3.4" vType="car" speedFactor="1.01" vaporized=""/>
    <tripinfo id="B1_3.0" depart="37.80" departLane="-361257727#0_1" departPos="12.10" departPosLat="0.00" departSpeed="8.33" departDelay="0.00" arrival="281.40" arrivalLane="-793339796#2_2" arrivalPos="83.13" arrivalPosLat="0.00" arrivalSpeed="24.59" duration="243.60" routeLength="1908.62" waitingTime="47.35" waitingCount="3" stopTime="0.00" timeLoss="109.74" rerouteNo="1" devices="tripinfo_B1_3.0 routing_B1_3.0" vType="bus" speedFactor="1.00" vaporized=""/>
    <personinfo id="pf_5.14" depart="140.00" type="ped" speedFactor="0.99" duration="145.20" waitingTime="22.80" timeLoss="35.20" traveltime="145.20">
        <walk depart="140.00" departPos="25.00" arrival="285.20" arrivalPos="7.46" duration="145.20" routeLength="151.44" timeLoss="35.20" maxSpeed="1.38" waitingTime="22.80"/>
    </personinfo>
    <personinfo id="pf_5.15" depart="150.00" type="ped" speedFactor="0.93" duration="138.05" waitingTime="7.15" timeLoss="20.40" traveltime="138.05">
        <walk depart="150.00" departPos="25.00" arrival="288.05" arrivalPos="7.46" duration="138.05" routeLength="151.44" timeLoss="20.40" maxSpeed="1.29" waitingTime="7.15"/>
    </personinfo>
    <tripinfo id="A1_3.7" depart="167.60" departLane="-793339796#2_1" departPos="8.10" departPosLat="0.00" departSpeed="22.68" departDelay="0.00" arrival="288.10" arrivalLane="-145894807#0_1" arrivalPos="260.97" arrivalPosLat="0.00" arrivalSpeed="8.63" duration="120.50" routeLength="1054.45" waitingTime="18.70" waitingCount="2" stopTime="0.00" timeLoss="34.89" rerouteNo="1" devices="tripinfo_A1_3.7 routing_A1_3.7" vType="jeep" speedFactor="1.04" vaporized=""/>
    <tripinfo id="B1_3.1" depart="116.10" departLane="-361257727#0_1" departPos="5.10" departPosLat="0.00" departSpeed="9.52" departDelay="0.00" arrival="288.65" arrivalLane="-793339796#2_2" arrivalPos="83.13" arrivalPosLat="0.00" arrivalSpeed="31.68" duration="172.55" routeLength="1915.62" waitingTime="21.00" waitingCount="2" stopTime="0.00" timeLoss="54.64" rerouteNo="1" devices="tripinfo_B1_3.1 routing_B1_3.1" vType="car" speedFactor="1.14" vaporized=""/>
    <tripinfo id="A1_3.8" depart="201.50" departLane="-793339796#2_1" departPos="8.10" departPosLat="0.00" departSpeed="28.53" departDelay="0.00" arrival="293.45" arrivalLane="-145894807#0_1" arrivalPos="260.97" arrivalPosLat="0.00" arrivalSpeed="8.53" duration="91.95" routeLength="1054.45" waitingTime="0.00" waitingCount="0" stopTime="0.00" timeLoss="4.87" rerouteNo="1" devices="tripinfo_A1_3.8 routing_A1_3.8" vType="jeep" speedFactor="1.03" vaporized=""/>
    <personinfo id="pf_5.16" depart="160.00" type="ped" speedFactor="0.88" duration="137.75" waitingTime="0.00" timeLoss="13.62" traveltime="137.75">
        <walk depart="160.00" departPos="25.00" arrival="297.75" arrivalPos="7.46" duration="137.75" routeLength="151.44" timeLoss="13.62" maxSpeed="1.22" waitingTime="0.00"/>
    </personinfo>
    <personinfo id="pf_5.17" depart="170.00" type="ped" speedFactor="0.94" duration="128.30" waitingTime="0.00" timeLoss="12.48" traveltime="128.30">
        <walk depart="170.00" departPos="25.00" arrival="298.30" arrivalPos="7.46" duration="128.30" routeLength="151.44" timeLoss="12.48" maxSpeed="1.31" waitingTime="0.00"/>
    </personinfo>
    <personinfo id="pf_5.19" depart="190.00" type="ped" speedFactor="1.16" duration="108.65" waitingTime="0.00" timeLoss="14.51" traveltime="108.65">
        <walk depart="190.00" departPos="25.00" arrival="298.65" arrivalPos="7.46" duration="108.65" routeLength="151.44" timeLoss="14.51" maxSpeed="1.61" waitingTime="0.00"/>
    </personinfo>