<?xml version="1.0" encoding="UTF-8"?>

<!-- generated on 2025-11-12 22:14:33 by Eclipse SUMO GUI Version 1.24.0
<sumoConfiguration xmlns:xsi="http://www.w3.org/2001/XMLSchema-instance" xsi:noNamespaceSchemaLocation="http://sumo.dlr.de/xsd/sumoConfiguration.xsd">

    <input>
        <net-file value="Olivarez_traci\network/network_onetrafficlight.net.xml"/>
        <route-files value="Olivarez_traci\demand/demand.rou.xml"/>
        <additional-files value="Olivarez_traci\additionals/map.poly.xml,Olivarez_traci\ additionals/detectors.add.xml"/>
    </input>

    <output>
        <tripinfo-output value="Olivarez_traci\output_DDPG\SD_DDPG_one_trafficlight_trips.xml"/>
        <statistic-output value="Olivarez_traci\output_DDPG\SD_DDPG_one_trafficlight_stats.xml"/>
    </output>

    <time>
        <begin value="0"/>
        <end value="10800"/>
        <step-length value="0.05"/>
    </time>

    <processing>
        <lateral-resolution value="0.1"/>
        <collision.action value="none"/>
        <collision.check-junctions value="false"/>
        <collision.mingap-factor value="0"/>
    </processing>

    <report>
        <no-warnings value="true"/>
    </report>

    <traci_server>
        <remote-port value="54536"/>
    </traci_server>

    <gui_only>
        <delay value="0"/>
    </gui_only>

</sumoConfiguration>
-->

<tripinfos xmlns:xsi="http://www.w3.org/2001/XMLSchema-instance" xsi:noNamespaceSchemaLocation="http://sumo.dlr.de/xsd/tripinfo_file.xsd">
    <tripinfo id="D1_1.0" depart="0.60" departLane="140483224#12_1" departPos="2.30" departPosLat="0.00" departSpeed="29.89" departDelay="0.00" arrival="25.15" arrivalLane="-361256298#1_2" arrivalPos="36.33" arrivalPosLat="0.00" arrivalSpeed="11.22" duration="24.55" routeLength="372.24" waitingTime="0.00" waitingCount="0" stopTime="0.00" timeLoss="9.95" rerouteNo="1" devices="tripinfo_D1_1.0 routing_D1_1.0" vType="tricycle" speedFactor="1.08" vaporized=""/>
    <tripinfo id="D3_1.0" depart="7.65" departLane="140483224#12_2" departPos="5.10" departPosLat="0.00" departSpeed="27.15" departDelay="0.00" arrival="26.55" arrivalLane="-440471861#6_2" arrivalPos="125.31" arrivalPosLat="0.00" arrivalSpeed="27.10" duration="18.90" routeLength="353.47" waitingTime="0.00" waitingCount="0" stopTime="0.00" timeLoss="4.43" rerouteNo="1" devices="tripinfo_D3_1.0 routing_D3_1.0" vType="car" speedFactor="0.98" vaporized=""/>
    <tripinfo id="A2_1.0" depart="4.45" departLane="-361256298#1_1" departPos="5.10" departPosLat="0.00" departSpeed="28.74" departDelay="0.00" arrival="49.70" arrivalLane="-440471861#6_1" arrivalPos="125.31" arrivalPosLat="0.00" arrivalSpeed="28.70" duration="45.25" routeLength="390.11" waitingTime="21.40" waitingCount="1" stopTime="0.00" timeLoss="31.67" rerouteNo="1" devices="tripinfo_A2_1.0 routing_A2_1.0" vType="car" speedFactor="1.03" vaporized=""/>
    <tripinfo id="B1_1.0" depart="37.80" departLane="939610874_1" departPos="2.30" departPosLat="0.00" departSpeed="8.51" departDelay="0.00" arrival="70.35" arrivalLane="-361256298#1_1" arrivalPos="36.33" arrivalPosLat="0.00" arrivalSpeed="19.02" duration="32.55" routeLength="277.75" waitingTime="0.00" waitingCount="0" stopTime="0.00" timeLoss="2.03" rerouteNo="1" devices="tripinfo_B1_1.0 routing_B1_1.0" vType="motorcycle" speedFactor="1.02" vaporized=""/>
    <tripinfo id="B2_1.0" depart="31.00" departLane="939610874_1" departPos="5.10" departPosLat="0.00" departSpeed="10.40" departDelay="0.00" arrival="89.85" arrivalLane="-440471861#6_1" arrivalPos="125.31" arrivalPosLat="0.00" arrivalSpeed="29.07" duration="58.85" routeLength="390.17" waitingTime="24.30" waitingCount="1" stopTime="0.00" timeLoss="34.36" rerouteNo="1" devices="tripinfo_B2_1.0 routing_B2_1.0" vType="car" speedFactor="1.25" vaporized=""/>
    <tripinfo id="B2_1.1" depart="64.60" departLane="939610874_1" departPos="5.10" departPosLat="0.00" departSpeed="8.26" departDelay="0.00" arrival="99.10" arrivalLane="-440471861#6_1" arrivalPos="125.31" arrivalPosLat="0.00" arrivalSpeed="27.52" duration="34.50" routeLength="390.17" waitingTime="0.00" waitingCount="0" stopTime="0.00" timeLoss="3.67" rerouteNo="1" devices="tripinfo_B2_1.1 routing_B2_1.1" vType="car" speedFactor="0.99" vaporized=""/>
    <tripinfo id="B2_1.2" depart="75.15" departLane="939610874_1" departPos="2.30" departPosLat="0.00" departSpeed="8.14" departDelay="0.00" arrival="111.30" arrivalLane="-440471861#6_1" arrivalPos="125.31" arrivalPosLat="0.00" arrivalSpeed="26.75" duration="36.15" routeLength="392.97" waitingTime="0.00" waitingCount="0" stopTime="0.00" timeLoss="4.54" rerouteNo="1" devices="tripinfo_B2_1.2 routing_B2_1.2" vType="tricycle" speedFactor="0.98" vaporized=""/>
    <personinfo id="pf_1.0" depart="0.00" type="ped" speedFactor="1.06" duration="114.30" waitingTime="0.00" timeLoss="11.44" traveltime="114.30">
        <walk depart="0.00" departPos="25.00" arrival="114.30" arrivalPos="7.46" duration="114.30" routeLength="151.44" timeLoss="11.44" maxSpeed="1.47" waitingTime="0.00"/>
    </personinfo>
    <tripinfo id="C3_1.0" depart="43.55" departLane="440471861#6_1" departPos="5.10" departPosLat="0.00" departSpeed="26.96" departDelay="0.00" arrival="123.20" arrivalLane="-140483224#12_1" arrivalPos="63.66" arrivalPosLat="0.00" arrivalSpeed="24.29" duration="79.65" routeLength="341.32" waitingTime="56.25" waitingCount="1" stopTime="0.00" timeLoss="65.82" rerouteNo="1" devices="tripinfo_C3_1.0 routing_C3_1.0" vType="car" speedFactor="0.97" vaporized=""/>
    <tripinfo id="C3_1.1" depart="78.25" departLane="440471861#6_1" departPos="2.30" departPosLat="0.00" departSpeed="26.15" departDelay="0.00" arrival="124.20" arrivalLane="-140483224#12_1" arrivalPos="63.66" arrivalPosLat="0.00" arrivalSpeed="26.04" duration="45.95" routeLength="344.12" waitingTime="19.80" waitingCount="1" stopTime="0.00" timeLoss="31.58" rerouteNo="1" devices="tripinfo_C3_1.1 routing_C3_1.1" vType="motorcycle" speedFactor="0.94" vaporized=""/>
    <tripinfo id="C2_1.0" depart="20.15" departLane="440471861#6_2" departPos="2.30" departPosLat="0.00" departSpeed="29.58" departDelay="0.00" arrival="128.55" arrivalLane="939610874_1" arrivalPos="50.72" arrivalPosLat="0.00" arrivalSpeed="8.79" duration="108.40" routeLength="342.54" waitingTime="82.70" waitingCount="1" stopTime="0.00" timeLoss="85.95" rerouteNo="1" devices="tripinfo_C2_1.0 routing_C2_1.0" vType="motorcycle" speedFactor="1.06" vaporized=""/>
    <tripinfo id="C1_1.0" depart="31.85" departLane="440471861#6_2" departPos="5.10" departPosLat="0.00" departSpeed="24.05" departDelay="0.00" arrival="133.80" arrivalLane="-361256298#1_2" arrivalPos="36.33" arrivalPosLat="0.00" arrivalSpeed="12.11" duration="101.95" routeLength="431.28" waitingTime="64.50" waitingCount="1" stopTime="0.00" timeLoss="82.77" rerouteNo="1" devices="tripinfo_C1_1.0 routing_C1_1.0" vType="car" speedFactor="0.87" vaporized=""/>
    <tripinfo id="C1_1.1" depart="41.05" departLane="440471861#6_2" departPos="5.10" departPosLat="0.00" departSpeed="30.46" departDelay="0.00" arrival="136.55" arrivalLane="-361256298#1_2" arrivalPos="36.33" arrivalPosLat="0.00" arrivalSpeed="12.58" duration="95.50" routeLength="431.28" waitingTime="56.45" waitingCount="1" stopTime="0.00" timeLoss="80.30" rerouteNo="1" devices="tripinfo_C1_1.1 routing_C1_1.1" vType="car" speedFactor="1.10" vaporized=""/>
    <tripinfo id="D3_1.1" depart="100.85" departLane="140483224#12_2" departPos="5.10" departPosLat="0.00" departSpeed="28.43" departDelay="0.00" arrival="160.95" arrivalLane="-440471861#6_2" arrivalPos="125.31" arrivalPosLat="0.00" arrivalSpeed="28.43" duration="60.10" routeLength="353.47" waitingTime="37.60" waitingCount="1" stopTime="0.00" timeLoss="46.23" rerouteNo="1" devices="tripinfo_D3_1.1 routing_D3_1.1" vType="car" speedFactor="1.02" vaporized=""/>
    <personinfo id="pf_1.1" depart="36.00" type="ped" speedFactor="0.94" duration="128.80" waitingTime="0.00" timeLoss="12.59" traveltime="128.80">
        <walk depart="36.00" departPos="25.00" arrival="164.80" arrivalPos="7.46" duration="128.80" routeLength="151.44" timeLoss="12.59" maxSpeed="1.30" waitingTime="0.00"/>
    </personinfo>
    <tripinfo id="D1_1.1" depart="46.15" departLane="140483224#12_1" departPos="2.30" departPosLat="0.00" departSpeed="32.70" departDelay="0.00" arrival="168.50" arrivalLane="-361256298#1_2" arrivalPos="36.33" arrivalPosLat="0.00" arrivalSpeed="11.24" duration="122.35" routeLength="372.24" waitingTime="94.35" waitingCount="1" stopTime="0.00" timeLoss="108.97" rerouteNo="1" devices="tripinfo_D1_1.1 routing_D1_1.1" vType="tricycle" speedFactor="1.18" vaporized=""/>
    <tripinfo id="D1_1.2" depart="58.55" departLane="140483224#12_1" departPos="5.10" departPosLat="0.00" departSpeed="30.59" departDelay="0.00" arrival="171.95" arrivalLane="-361256298#1_2" arrivalPos="36.33" arrivalPosLat="0.00" arrivalSpeed="12.50" duration="113.40" routeLength="369.44" waitingTime="75.95" waitingCount="1" stopTime="0.00" timeLoss="99.58" rerouteNo="1" devices="tripinfo_D1_1.2 routing_D1_1.2" vType="car" speedFactor="1.13" vaporized=""/>
    <tripinfo id="D1_1.3" depart="118.00" departLane="140483224#12_1" departPos="5.10" departPosLat="0.00" departSpeed="29.61" departDelay="0.00" arrival="175.05" arrivalLane="-361256298#1_2" arrivalPos="36.33" arrivalPosLat="0.00" arrivalSpeed="12.75" duration="57.05" routeLength="369.44" waitingTime="23.85" waitingCount="3" stopTime="0.00" timeLoss="43.42" rerouteNo="1" devices="tripinfo_D1_1.3 routing_D1_1.3" vType="car" speedFactor="1.15" vaporized=""/>
    <personinfo id="pf_1.2" depart="72.00" type="ped" speedFactor="1.01" duration="119.70" waitingTime="0.00" timeLoss="11.79" traveltime="119.70">
        <walk depart="72.00" departPos="25.00" arrival="191.70" arrivalPos="7.46" duration="119.70" routeLength="151.44" timeLoss="11.79" maxSpeed="1.40" waitingTime="0.00"/>
    </personinfo>
    <tripinfo id="A3_1.0" depart="107.30" departLane="-361256298#1_2" departPos="12.10" departPosLat="0.00" departSpeed="27.78" departDelay="0.00" arrival="201.35" arrivalLane="-140483224#12_2" arrivalPos="63.66" arrivalPosLat="0.00" arrivalSpeed="17.52" duration="94.05" routeLength="329.68" waitingTime="65.60" waitingCount="1" stopTime="0.00" timeLoss="80.69" rerouteNo="1" devices="tripinfo_A3_1.0 routing_A3_1.0" vType="bus" speedFactor="1.00" vaporized=""/>
    <tripinfo id="A3_1.1" depart="148.50" departLane="-361256298#1_2" departPos="8.10" departPosLat="0.00" departSpeed="31.07" departDelay="0.00" arrival="202.90" arrivalLane="-140483224#12_2" arrivalPos="63.66" arrivalPosLat="0.00" arrivalSpeed="19.70" duration="54.40" routeLength="333.68" waitingTime="21.30" waitingCount="1" stopTime="0.00" timeLoss="42.34" rerouteNo="1" devices="tripinfo_A3_1.1 routing_A3_1.1" vType="jeep" speedFactor="1.12" vaporized=""/>
    <tripinfo id="B1_1.1" depart="171.30" departLane="939610874_1" departPos="5.10" departPosLat="0.00" departSpeed="8.64" departDelay="0.00" arrival="204.00" arrivalLane="-361256298#1_1" arrivalPos="36.33" arrivalPosLat="0.00" arrivalSpeed="13.29" duration="32.70" routeLength="274.95" waitingTime="0.00" waitingCount="0" stopTime="0.00" timeLoss="2.99" rerouteNo="1" devices="tripinfo_B1_1.1 routing_B1_1.1" vType="car" speedFactor="1.04" vaporized=""/>
    <personinfo id="pf_1.3" depart="108.00" type="ped" speedFactor="1.08" duration="112.05" waitingTime="0.00" timeLoss="11.34" traveltime="112.05">
        <walk depart="108.00" departPos="25.00" arrival="220.05" arrivalPos="7.46" duration="112.05" routeLength="151.44" timeLoss="11.34" maxSpeed="1.50" waitingTime="0.00"/>
    </personinfo>
    <tripinfo id="A1_1.0" depart="78.95" departLane="-361256298#1_1" departPos="7.20" departPosLat="0.00" departSpeed="28.23" departDelay="0.00" arrival="224.30" arrivalLane="939610874_1" arrivalPos="50.72" arrivalPosLat="0.00" arrivalSpeed="8.44" duration="145.35" routeLength="315.14" waitingTime="114.40" waitingCount="1" stopTime="0.00" timeLoss="121.93" rerouteNo="1" devices="tripinfo_A1_1.0 routing_A1_1.0" vType="truck" speedFactor="1.02" vaporized=""/>
    <tripinfo id="A1_1.1" depart="125.65" departLane="-361256298#1_1" departPos="2.30" departPosLat="0.00" departSpeed="25.79" departDelay="0.00" arrival="227.70" arrivalLane="939610874_1" arrivalPos="50.72" arrivalPosLat="0.00" arrivalSpeed="7.72" duration="102.05" routeLength="320.04" waitingTime="65.40" waitingCount="1" stopTime="0.00" timeLoss="76.18" rerouteNo="1" devices="tripinfo_A1_1.1 routing_A1_1.1" vType="motorcycle" speedFactor="0.93" vaporized=""/>
    <tripinfo id="A1_1.2" depart="154.60" departLane="-361256298#1_1" departPos="2.30" departPosLat="0.00" departSpeed="30.64" departDelay="0.00" arrival="229.10" arrivalLane="939610874_1" arrivalPos="50.72" arrivalPosLat="0.00" arrivalSpeed="9.16" duration="74.50" routeLength="320.04" waitingTime="37.75" waitingCount="1" stopTime="0.00" timeLoss="52.76" rerouteNo="1" devices="tripinfo_A1_1.2 routing_A1_1.2" vType="tricycle" speedFactor="1.10" vaporized=""/>
    <tripinfo id="B2_1.3" depart="198.55" departLane="939610874_1" departPos="7.20" departPosLat="0.00" departSpeed="8.14" departDelay="0.00" arrival="243.65" arrivalLane="-440471861#6_2" arrivalPos="125.31" arrivalPosLat="0.00" arrivalSpeed="20.49" duration="45.10" routeLength="388.07" waitingTime="0.00" waitingCount="0" stopTime="0.00" timeLoss="14.08" rerouteNo="1" devices="tripinfo_B2_1.3 routing_B2_1.3" vType="truck" speedFactor="0.98" vaporized=""/>
    <personinfo id="pf_1.4" depart="144.00" type="ped" speedFactor="1.03" duration="117.80" waitingTime="0.00" timeLoss="11.97" traveltime="117.80">
        <walk depart="144.00" departPos="25.00" arrival="261.80" arrivalPos="7.46" duration="117.80" routeLength="151.44" timeLoss="11.97" maxSpeed="1.43" waitingTime="0.00"/>
    </personinfo>
    <tripinfo id="C3_1.2" depart="161.95" departLane="440471861#6_1" departPos="2.30" departPosLat="0.00" departSpeed="23.25" departDelay="0.00" arrival="268.90" arrivalLane="-140483224#12_1" arrivalPos="63.66" arrivalPosLat="0.00" arrivalSpeed="23.11" duration="106.95" routeLength="344.12" waitingTime="87.05" waitingCount="1" stopTime="0.00" timeLoss="90.76" rerouteNo="1" devices="tripinfo_C3_1.2 routing_C3_1.2" vType="motorcycle" speedFactor="0.84" vaporized=""/>
    <tripinfo id="C3_1.3" depart="180.75" departLane="440471861#6_1" departPos="5.10" departPosLat="0.00" departSpeed="28.11" departDelay="0.00" arrival="272.00" arrivalLane="-140483224#12_1" arrivalPos="63.66" arrivalPosLat="0.00" arrivalSpeed="24.46" duration="91.25" routeLength="341.32" waitingTime="64.05" waitingCount="1" stopTime="0.00" timeLoss="77.97" rerouteNo="1" devices="tripinfo_C3_1.3 routing_C3_1.3" vType="car" speedFactor="1.01" vaporized=""/>
    <tripinfo id="C2_1.1" depart="161.10" departLane="440471861#6_2" departPos="5.10" departPosLat="0.00" departSpeed="28.67" departDelay="0.00" arrival="278.75" arrivalLane="939610874_1" arrivalPos="50.72" arrivalPosLat="0.00" arrivalSpeed="8.60" duration="117.65" routeLength="339.74" waitingTime="88.00" waitingCount="1" stopTime="0.00" timeLoss="94.63" rerouteNo="1" devices="tripinfo_C2_1.1 routing_C2_1.1" vType="car" speedFactor="1.03" vaporized=""/>
    <tripinfo id="D3_1.2" depart="208.30" departLane="140483224#12_2" departPos="5.10" departPosLat="0.00" departSpeed="27.89" departDelay="0.00" arrival="308.50" arrivalLane="-440471861#6_2" arrivalPos="125.31" arrivalPosLat="0.00" arrivalSpeed="27.83" duration="100.20" routeLength="353.47" waitingTime="77.50" waitingCount="1" stopTime="0.00" timeLoss="86.06" rerouteNo="1" devices="tripinfo_D3_1.2 routing_D3_1.2" vType="car" speedFactor="1.00" vaporized=""/>
    <tripinfo id="D1_1.4" depart="178.90" departLane="140483224#12_1" departPos="2.30" departPosLat="0.00" departSpeed="28.77" departDelay="0.00" arrival="309.80" arrivalLane="-361256298#1_2" arrivalPos="36.33" arrivalPosLat="0.00" arrivalSpeed="18.81" duration="130.90" routeLength="372.24" waitingTime="108.60" waitingCount="1" stopTime="0.00" timeLoss="115.67" rerouteNo="1" devices="tripinfo_D1_1.4 routing_D1_1.4" vType="motorcycle" speedFactor="1.04" vaporized=""/>
    <tripinfo id="D1_1.5" depart="226.35" departLane="140483224#12_1" departPos="5.10" departPosLat="0.00" departSpeed="30.59" departDelay="0.00" arrival="315.95" arrivalLane="-361256298#1_2" arrivalPos="36.33" arrivalPosLat="0.00" arrivalSpeed="12.41" duration="89.60" routeLength="369.44" waitingTime="55.35" waitingCount="1" stopTime="0.00" timeLoss="75.55" rerouteNo="1" devices="tripinfo_D1_1.5 routing_D1_1.5" vType="car" speedFactor="1.11" vaporized=""/>
    <tripinfo id="D2_1.0" depart="290.30" departLane="140483224#12_1" departPos="5.10" departPosLat="0.00" departSpeed="26.88" departDelay="0.00" arrival="317.60" arrivalLane="939610874_1" arrivalPos="50.72" arrivalPosLat="0.00" arrivalSpeed="8.91" duration="27.30" routeLength="293.42" waitingTime="0.00" waitingCount="0" stopTime="0.00" timeLoss="7.00" rerouteNo="1" devices="tripinfo_D2_1.0 routing_D2_1.0" vType="car" speedFactor="1.07" vaporized=""/>
    <tripinfo id="D1_1.6" depart="284.85" departLane="140483224#12_1" departPos="8.10" departPosLat="0.00" departSpeed="26.82" departDelay="0.00" arrival="319.70" arrivalLane="-361256298#1_2" arrivalPos="36.33" arrivalPosLat="0.00" arrivalSpeed="12.55" duration="34.85" routeLength="366.44" waitingTime="1.20" waitingCount="1" stopTime="0.00" timeLoss="18.78" rerouteNo="1" devices="tripinfo_D1_1.6 routing_D1_1.6" vType="jeep" speedFactor="0.97" vaporized=""/>
    <personinfo id="pf_1.5" depart="180.00" type="ped" speedFactor="0.83" duration="145.65" waitingTime="0.00" timeLoss="14.44" traveltime="145.65">
        <walk depart="180.00" departPos="25.00" arrival="325.65" arrivalPos="7.46" duration="145.65" routeLength="151.44" timeLoss="14.44" maxSpeed="1.15" waitingTime="0.00"/>
    </personinfo>
    <personinfo id="pf_1.6" depart="216.00" type="ped" speedFactor="1.05" duration="115.90" waitingTime="0.00" timeLoss="11.64" traveltime="115.90">
        <walk depart="216.00" departPos="25.00" arrival="331.90" arrivalPos="7.46" duration="115.90" routeLength="151.44" timeLoss="11.64" maxSpeed="1.45" waitingTime="0.00"/>
    </personinfo>
    <tripinfo id="A3_1.2" depart="227.15" departLane="-361256298#1_2" departPos="7.20" departPosLat="0.00" departSpeed="27.98" departDelay="0.00" arrival="347.25" arrivalLane="-140483224#12_2" arrivalPos="63.66" arrivalPosLat="0.00" arrivalSpeed="18.15" duration="120.10" routeLength="334.58" waitingTime="92.30" waitingCount="1" stopTime="0.00" timeLoss="106.65" rerouteNo="1" devices="tripinfo_A3_1.2 routing_A3_1.2" vType="truck" speedFactor="1.01" vaporized=""/>
    <tripinfo id="A2_1.1" depart="261.45" departLane="-361256298#1_1" departPos="8.10" departPosLat="0.00" departSpeed="33.64" departDelay="0.00" arrival="348.45" arrivalLane="-440471861#6_2" arrivalPos="125.31" arrivalPosLat="0.00" arrivalSpeed="29.77" duration="87.00" routeLength="387.11" waitingTime="58.70" waitingCount="1" stopTime="0.00" timeLoss="75.48" rerouteNo="1" devices="tripinfo_A2_1.1 routing_A2_1.1" vType="jeep" speedFactor="1.21" vaporized=""/>
    <tripinfo id="A2_1.2" depart="337.55" departLane="-361256298#1_1" departPos="5.10" departPosLat="0.00" departSpeed="24.41" departDelay="0.00" arrival="360.50" arrivalLane="-440471861#6_2" arrivalPos="125.31" arrivalPosLat="0.00" arrivalSpeed="24.40" duration="22.95" routeLength="390.11" waitingTime="0.00" waitingCount="0" stopTime="0.00" timeLoss="6.94" rerouteNo="1" devices="tripinfo_A2_1.2 routing_A2_1.2" vType="car" speedFactor="0.88" vaporized=""/>
    <tripinfo id="A1_1.3" depart="222.65" departLane="-361256298#1_1" departPos="5.10" departPosLat="0.00" departSpeed="29.40" departDelay="0.00" arrival="368.35" arrivalLane="939610874_1" arrivalPos="50.72" arrivalPosLat="0.00" arrivalSpeed="8.75" duration="145.70" routeLength="317.24" waitingTime="117.50" waitingCount="1" stopTime="0.00" timeLoss="123.14" rerouteNo="1" devices="tripinfo_A1_1.3 routing_A1_1.3" vType="car" speedFactor="1.06" vaporized=""/>
    <tripinfo id="A1_1.4" depart="277.50" departLane="-361256298#1_1" departPos="8.10" departPosLat="0.00" departSpeed="24.64" departDelay="0.00" arrival="372.95" arrivalLane="939610874_1" arrivalPos="50.72" arrivalPosLat="0.00" arrivalSpeed="7.34" duration="95.45" routeLength="314.24" waitingTime="52.35" waitingCount="2" stopTime="0.00" timeLoss="68.65" rerouteNo="1" devices="tripinfo_A1_1.4 routing_A1_1.4" vType="jeep" speedFactor="0.89" vaporized=""/>
    <tripinfo id="A1_1.5" depart="322.60" departLane="-361256298#1_1" departPos="2.30" departPosLat="0.00" departSpeed="27.97" departDelay="0.00" arrival="375.15" arrivalLane="939610874_1" arrivalPos="50.72" arrivalPosLat="0.00" arrivalSpeed="8.37" duration="52.55" routeLength="320.04" waitingTime="8.20" waitingCount="1" stopTime="0.00" timeLoss="28.70" rerouteNo="1" devices="tripinfo_A1_1.5 routing_A1_1.5" vType="tricycle" speedFactor="1.01" vaporized=""/>
    <tripinfo id="A1_1.6" depart="329.65" departLane="-361256298#1_1" departPos="2.30" departPosLat="0.00" departSpeed="27.66" departDelay="0.00" arrival="376.55" arrivalLane="939610874_1" arrivalPos="50.72" arrivalPosLat="0.00" arrivalSpeed="8.23" duration="46.90" routeLength="320.04" waitingTime="6.90" waitingCount="1" stopTime="0.00" timeLoss="22.77" rerouteNo="1" devices="tripinfo_A1_1.6 routing_A1_1.6" vType="motorcycle" speedFactor="1.00" vaporized=""/>
    <tripinfo id="B3_1.0" depart="241.30" departLane="939610874_1" departPos="2.30" departPosLat="0.00" departSpeed="9.40" departDelay="0.00" arrival="378.35" arrivalLane="-140483224#12_1" arrivalPos="63.66" arrivalPosLat="0.00" arrivalSpeed="31.22" duration="137.05" routeLength="352.52" waitingTime="107.50" waitingCount="1" stopTime="0.00" timeLoss="111.24" rerouteNo="1" devices="tripinfo_B3_1.0 routing_B3_1.0" vType="motorcycle" speedFactor="1.13" vaporized=""/>
    <tripinfo id="A1_1.7" depart="342.40" departLane="-361256298#1_1" departPos="12.10" departPosLat="0.00" departSpeed="26.56" departDelay="0.00" arrival="378.60" arrivalLane="939610874_1" arrivalPos="50.72" arrivalPosLat="0.00" arrivalSpeed="8.31" duration="36.20" routeLength="310.24" waitingTime="0.00" waitingCount="0" stopTime="0.00" timeLoss="12.56" rerouteNo="1" devices="tripinfo_A1_1.7 routing_A1_1.7" vType="bus" speedFactor="1.00" vaporized=""/>
    <tripinfo id="B2_1.4" depart="306.80" departLane="939610874_1" departPos="5.10" departPosLat="0.00" departSpeed="7.68" departDelay="0.00" arrival="384.65" arrivalLane="-440471861#6_1" arrivalPos="125.31" arrivalPosLat="0.00" arrivalSpeed="25.60" duration="77.85" routeLength="390.17" waitingTime="34.70" waitingCount="1" stopTime="0.00" timeLoss="44.75" rerouteNo="1" devices="tripinfo_B2_1.4 routing_B2_1.4" vType="car" speedFactor="0.92" vaporized=""/>
    <personinfo id="pf_1.7" depart="252.00" type="ped" speedFactor="0.89" duration="136.40" waitingTime="0.00" timeLoss="13.33" traveltime="136.40">
        <walk depart="252.00" departPos="25.00" arrival="388.40" arrivalPos="7.46" duration="136.40" routeLength="151.44" timeLoss="13.33" maxSpeed="1.23" waitingTime="0.00"/>
    </personinfo>
    <tripinfo id="B1_1.2" depart="381.65" departLane="939610874_1" departPos="12.10" departPosLat="0.00" departSpeed="8.33" departDelay="0.00" arrival="415.55" arrivalLane="-361256298#1_1" arrivalPos="36.33" arrivalPosLat="0.00" arrivalSpeed="9.92" duration="33.90" routeLength="267.95" waitingTime="0.00" waitingCount="0" stopTime="0.00" timeLoss="3.92" rerouteNo="1" devices="tripinfo_B1_1.2 routing_B1_1.2" vType="bus" speedFactor="1.00" vaporized=""/>
    <personinfo id="pf_1.8" depart="288.00" type="ped" speedFactor="0.94" duration="129.15" waitingTime="0.00" timeLoss="12.89" traveltime="129.15">
        <walk depart="288.00" departPos="25.00" arrival="417.15" arrivalPos="7.46" duration="129.15" routeLength="151.44" timeLoss="12.89" maxSpeed="1.30" waitingTime="0.00"/>
    </personinfo>
    <tripinfo id="C3_1.4" depart="308.85" departLane="440471861#6_1" departPos="5.10" departPosLat="0.00" departSpeed="32.75" departDelay="0.00" arrival="417.45" arrivalLane="-140483224#12_1" arrivalPos="63.66" arrivalPosLat="0.00" arrivalSpeed="24.60" duration="108.60" routeLength="341.32" waitingTime="86.00" waitingCount="1" stopTime="0.00" timeLoss="97.24" rerouteNo="1" devices="tripinfo_C3_1.4 routing_C3_1.4" vType="car" speedFactor="1.18" vaporized=""/>
    <tripinfo id="C1_1.2" depart="288.55" departLane="440471861#6_2" departPos="2.30" departPosLat="0.00" departSpeed="28.89" departDelay="0.00" arrival="428.30" arrivalLane="-361256298#1_2" arrivalPos="36.33" arrivalPosLat="0.00" arrivalSpeed="11.08" duration="139.75" routeLength="434.08" waitingTime="108.50" waitingCount="1" stopTime="0.00" timeLoss="123.67" rerouteNo="1" devices="tripinfo_C1_1.2 routing_C1_1.2" vType="tricycle" speedFactor="1.04" vaporized=""/>
    <tripinfo id="C2_1.2" depart="289.65" departLane="440471861#6_2" departPos="5.10" departPosLat="0.00" departSpeed="20.22" departDelay="0.00" arrival="428.55" arrivalLane="939610874_1" arrivalPos="50.72" arrivalPosLat="0.00" arrivalSpeed="7.82" duration="138.90" routeLength="339.74" waitingTime="101.00" waitingCount="1" stopTime="0.00" timeLoss="113.59" rerouteNo="1" devices="tripinfo_C2_1.2 routing_C2_1.2" vType="car" speedFactor="0.94" vaporized=""/>
    <tripinfo id="C2_1.3" depart="379.20" departLane="440471861#6_2" departPos="5.10" departPosLat="0.00" departSpeed="25.40" departDelay="0.00" arrival="431.90" arrivalLane="939610874_1" arrivalPos="50.72" arrivalPosLat="0.00" arrivalSpeed="7.56" duration="52.70" routeLength="339.74" waitingTime="13.40" waitingCount="1" stopTime="0.00" timeLoss="26.71" rerouteNo="1" devices="tripinfo_C2_1.3 routing_C2_1.3" vType="car" speedFactor="0.91" vaporized=""/>
    <tripinfo id="C1_1.3" depart="324.05" departLane="440471861#6_2" departPos="5.10" departPosLat="0.00" departSpeed="25.27" departDelay="0.00" arrival="432.10" arrivalLane="-361256298#1_2" arrivalPos="36.33" arrivalPosLat="0.00" arrivalSpeed="12.58" duration="108.05" routeLength="431.28" waitingTime="67.70" waitingCount="1" stopTime="0.00" timeLoss="89.72" rerouteNo="1" devices="tripinfo_C1_1.3 routing_C1_1.3" vType="car" speedFactor="0.91" vaporized=""/>
    <tripinfo id="C2_1.4" depart="400.55" departLane="440471861#6_2" departPos="5.10" departPosLat="0.00" departSpeed="30.19" departDelay="0.00" arrival="433.65" arrivalLane="939610874_1" arrivalPos="50.72" arrivalPosLat="0.00" arrivalSpeed="9.00" duration="33.10" routeLength="339.74" waitingTime="0.00" waitingCount="0" stopTime="0.00" timeLoss="11.22" rerouteNo="1" devices="tripinfo_C2_1.4 routing_C2_1.4" vType="car" speedFactor="1.09" vaporized=""/>
    <tripinfo id="C2_1.5" depart="401.10" departLane="440471861#6_2" departPos="5.10" departPosLat="0.00" departSpeed="27.33" departDelay="0.00" arrival="435.50" arrivalLane="939610874_1" arrivalPos="50.72" arrivalPosLat="0.00" arrivalSpeed="8.67" duration="34.40" routeLength="339.74" waitingTime="0.00" waitingCount="0" stopTime="0.00" timeLoss="11.55" rerouteNo="1" devices="tripinfo_C2_1.5 routing_C2_1.5" vType="car" speedFactor="1.04" vaporized=""/>
    <tripinfo id="C2_1.6" depart="426.35" departLane="440471861#6_2" departPos="2.30" departPosLat="0.00" departSpeed="28.11" departDelay="0.00" arrival="450.60" arrivalLane="939610874_1" arrivalPos="50.72" arrivalPosLat="0.00" arrivalSpeed="8.38" duration="24.25" routeLength="342.54" waitingTime="0.00" waitingCount="0" stopTime="0.00" timeLoss="0.61" rerouteNo="1" devices="tripinfo_C2_1.6 routing_C2_1.6" vType="tricycle" speedFactor="1.01" vaporized=""/>
    <tripinfo id="D3_1.3" depart="358.75" departLane="140483224#12_2" departPos="5.10" departPosLat="0.00" departSpeed="27.58" departDelay="0.00" arrival="455.20" arrivalLane="-440471861#6_2" arrivalPos="125.31" arrivalPosLat="0.00" arrivalSpeed="27.55" duration="96.45" routeLength="353.47" waitingTime="73.65" waitingCount="1" stopTime="0.00" timeLoss="82.19" rerouteNo="1" devices="tripinfo_D3_1.3 routing_D3_1.3" vType="car" speedFactor="0.99" vaporized=""/>
    <tripinfo id="D1_1.7" depart="370.50" departLane="140483224#12_1" departPos="2.30" departPosLat="0.00" departSpeed="34.73" departDelay="0.00" arrival="455.55" arrivalLane="-361256298#1_2" arrivalPos="36.33" arrivalPosLat="0.00" arrivalSpeed="18.57" duration="85.05" routeLength="372.24" waitingTime="63.40" waitingCount="1" stopTime="0.00" timeLoss="72.41" rerouteNo="1" devices="tripinfo_D1_1.7 routing_D1_1.7" vType="motorcycle" speedFactor="1.25" vaporized=""/>
    <tripinfo id="D3_1.4" depart="380.35" departLane="140483224#12_2" departPos="8.10" departPosLat="0.00" departSpeed="29.84" departDelay="0.00" arrival="456.30" arrivalLane="-440471861#6_2" arrivalPos="125.31" arrivalPosLat="0.00" arrivalSpeed="28.84" duration="75.95" routeLength="350.47" waitingTime="52.40" waitingCount="1" stopTime="0.00" timeLoss="63.44" rerouteNo="1" devices="tripinfo_D3_1.4 routing_D3_1.4" vType="jeep" speedFactor="1.13" vaporized=""/>
    <tripinfo id="D1_1.8" depart="423.85" departLane="140483224#12_1" departPos="5.10" departPosLat="0.00" departSpeed="25.54" departDelay="0.00" arrival="463.35" arrivalLane="-361256298#1_2" arrivalPos="36.33" arrivalPosLat="0.00" arrivalSpeed="12.28" duration="39.50" routeLength="369.44" waitingTime="3.90" waitingCount="1" stopTime="0.00" timeLoss="22.51" rerouteNo="1" devices="tripinfo_D1_1.8 routing_D1_1.8" vType="car" speedFactor="0.92" vaporized=""/>
    <tripinfo id="D1_1.9" depart="439.50" departLane="140483224#12_1" departPos="2.30" departPosLat="0.00" departSpeed="28.80" departDelay="0.00" arrival="464.70" arrivalLane="-361256298#1_2" arrivalPos="36.33" arrivalPosLat="0.00" arrivalSpeed="18.27" duration="25.20" routeLength="372.24" waitingTime="0.00" waitingCount="0" stopTime="0.00" timeLoss="9.98" rerouteNo="1" devices="tripinfo_D1_1.9 routing_D1_1.9" vType="motorcycle" speedFactor="1.04" vaporized=""/>