<?xml version="1.0" encoding="UTF-8"?>

<!-- generated on 2025-11-11 17:00:18 by Eclipse SUMO sumo Version 1.24.0
<sumoConfiguration xmlns:xsi="http://www.w3.org/2001/XMLSchema-instance" xsi:noNamespaceSchemaLocation="http://sumo.dlr.de/xsd/sumoConfiguration.xsd">

    <input>
        <net-file value="Olivarez_traci\network/map.net.xml"/>
        <route-files value="Olivarez_traci\demand/demand.rou.xml"/>
        <additional-files value="Olivarez_traci\additionals/map.poly.xml,Olivarez_traci\ additionals/detectors.add.xml"/>
    </input>

    <output>
        <tripinfo-output value="Olivarez_traci\output_DDPG\SD_DQN_trips.xml"/>
        <statistic-output value="Olivarez_traci\output_DDPG\SD_DQN_stats.xml"/>
    </output>

    <time>
        <begin value="0"/>
        <end value="10000"/>
        <step-length value="0.05"/>
    </time>

    <processing>
        <lateral-resolution value="0.1"/>
        <collision.action value="none"/>
        <collision.check-junctions value="false"/>
        <collision.mingap-factor value="0"/>
    </processing>

    <report>
        <no-warnings value="true"/>
    </report>

    <traci_server>
        <remote-port value="55437"/>
    </traci_server>

    <gui_only>
        <delay value="0"/>
    </gui_only>

</sumoConfiguration>
-->

<tripinfos xmlns:xsi="http://www.w3.org/2001/XMLSchema-instance" xsi:noNamespaceSchemaLocation="http://sumo.dlr.de/xsd/tripinfo_file.xsd">
    <tripinfo id="D3_1.0" depart="7.65" departLane="140483224#1_1" departPos="7.20" departPosLat="0.00" departSpeed="28.51" departDelay="0.00" arrival="54.50" arrivalLane="-440471861#0_2" arrivalPos="31.49" arrivalPosLat="0.00" arrivalSpeed="28.49" duration="46.85" routeLength="1067.01" waitingTime="0.00" waitingCount="0" stopTime="0.00" timeLoss="8.01" rerouteNo="1" devices="tripinfo_D3_1.0 routing_D3_1.0" vType="truck" speedFactor="1.03" vaporized=""/>
    <tripinfo id="A2_1.0" depart="4.45" departLane="-793339796#2_1" departPos="5.10" departPosLat="0.00" departSpeed="27.35" departDelay="0.00" arrival="61.85" arrivalLane="-440471861#0_1" arrivalPos="31.49" arrivalPosLat="0.00" arrivalSpeed="27.31" duration="57.40" routeLength="1081.89" waitingTime="8.00" waitingCount="1" stopTime="0.00" timeLoss="17.81" rerouteNo="1" devices="tripinfo_A2_1.0 routing_A2_1.0" vType="car" speedFactor="0.98" vaporized=""/>
    <tripinfo id="D1_1.0" depart="0.60" departLane="140483224#1_1" departPos="8.10" departPosLat="0.00" departSpeed="22.30" departDelay="0.00" arrival="87.60" arrivalLane="-793339796#2_2" arrivalPos="83.13" arrivalPosLat="0.00" arrivalSpeed="22.28" duration="87.00" routeLength="1645.47" waitingTime="0.00" waitingCount="0" stopTime="0.00" timeLoss="10.26" rerouteNo="1" devices="tripinfo_D1_1.0 routing_D1_1.0" vType="jeep" speedFactor="0.80" vaporized=""/>
    <personinfo id="pf_1.0" depart="0.00" type="ped" speedFactor="1.06" duration="136.15" waitingTime="21.80" timeLoss="33.29" traveltime="136.15">
        <walk depart="0.00" departPos="25.00" arrival="136.15" arrivalPos="7.46" duration="136.15" routeLength="151.44" timeLoss="33.29" maxSpeed="1.47" waitingTime="21.80"/>
    </personinfo>
    <tripinfo id="C3_1.1" depart="78.25" departLane="440471861#0_1" departPos="8.10" departPosLat="0.00" departSpeed="29.57" departDelay="0.00" arrival="153.85" arrivalLane="-140483224#1_2" arrivalPos="64.17" arrivalPosLat="0.00" arrivalSpeed="29.54" duration="75.60" routeLength="1050.95" waitingTime="19.65" waitingCount="1" stopTime="0.00" timeLoss="38.99" rerouteNo="1" devices="tripinfo_C3_1.1 routing_C3_1.1" vType="jeep" speedFactor="1.06" vaporized=""/>
    <tripinfo id="C3_1.0" depart="43.55" departLane="440471861#0_1" departPos="2.30" departPosLat="0.00" departSpeed="28.16" departDelay="0.00" arrival="156.45" arrivalLane="-140483224#1_1" arrivalPos="64.17" arrivalPosLat="-0.00" arrivalSpeed="28.11" duration="112.90" routeLength="1056.75" waitingTime="52.65" waitingCount="2" stopTime="0.00" timeLoss="74.26" rerouteNo="1" devices="tripinfo_C3_1.0 routing_C3_1.0" vType="tricycle" speedFactor="1.01" vaporized=""/>
    <tripinfo id="D3_1.1" depart="100.85" departLane="140483224#1_2" departPos="8.10" departPosLat="0.00" departSpeed="30.83" departDelay="0.00" arrival="158.30" arrivalLane="-440471861#0_2" arrivalPos="31.49" arrivalPosLat="0.00" arrivalSpeed="30.77" duration="57.45" routeLength="1066.11" waitingTime="10.05" waitingCount="1" stopTime="0.00" timeLoss="21.55" rerouteNo="1" devices="tripinfo_D3_1.1 routing_D3_1.1" vType="jeep" speedFactor="1.11" vaporized=""/>
    <personinfo id="pf_1.1" depart="36.00" type="ped" speedFactor="0.94" duration="128.95" waitingTime="0.00" timeLoss="12.74" traveltime="128.95">
        <walk depart="36.00" departPos="25.00" arrival="164.95" arrivalPos="7.46" duration="128.95" routeLength="151.44" timeLoss="12.74" maxSpeed="1.30" waitingTime="0.00"/>
    </personinfo>
    <tripinfo id="A1_1.0" depart="78.95" departLane="-793339796#2_1" departPos="7.20" departPosLat="0.00" departSpeed="29.06" departDelay="0.00" arrival="169.70" arrivalLane="-145894807#0_1" arrivalPos="260.97" arrivalPosLat="0.00" arrivalSpeed="8.70" duration="90.75" routeLength="1055.35" waitingTime="0.00" waitingCount="0" stopTime="0.00" timeLoss="5.25" rerouteNo="1" devices="tripinfo_A1_1.0 routing_A1_1.0" vType="truck" speedFactor="1.05" vaporized=""/>
    <tripinfo id="C1_1.0" depart="31.85" departLane="440471861#0_1" departPos="2.30" departPosLat="0.00" departSpeed="30.61" departDelay="0.00" arrival="173.00" arrivalLane="-793339796#2_2" arrivalPos="83.13" arrivalPosLat="0.00" arrivalSpeed="30.57" duration="141.15" routeLength="1656.83" waitingTime="72.95" waitingCount="2" stopTime="0.00" timeLoss="86.03" rerouteNo="1" devices="tripinfo_C1_1.0 routing_C1_1.0" vType="motorcycle" speedFactor="1.10" vaporized=""/>
    <tripinfo id="C2_1.0" depart="20.15" departLane="440471861#0_2" departPos="5.10" departPosLat="0.00" departSpeed="28.79" departDelay="0.00" arrival="173.15" arrivalLane="-145894807#0_1" arrivalPos="260.97" arrivalPosLat="0.00" arrivalSpeed="8.61" duration="153.00" routeLength="1099.91" waitingTime="58.95" waitingCount="2" stopTime="0.00" timeLoss="68.75" rerouteNo="1" devices="tripinfo_C2_1.0 routing_C2_1.0" vType="car" speedFactor="1.04" vaporized=""/>
    <tripinfo id="C1_1.1" depart="41.05" departLane="440471861#0_1" departPos="5.10" departPosLat="0.00" departSpeed="26.92" departDelay="0.00" arrival="185.45" arrivalLane="-793339796#2_2" arrivalPos="83.13" arrivalPosLat="0.00" arrivalSpeed="26.86" duration="144.40" routeLength="1654.03" waitingTime="57.00" waitingCount="2" stopTime="0.00" timeLoss="81.81" rerouteNo="1" devices="tripinfo_C1_1.1 routing_C1_1.1" vType="car" speedFactor="0.97" vaporized=""/>
    <personinfo id="pf_1.2" depart="72.00" type="ped" speedFactor="1.01" duration="128.75" waitingTime="8.85" timeLoss="20.84" traveltime="128.75">
        <walk depart="72.00" departPos="25.00" arrival="200.75" arrivalPos="7.46" duration="128.75" routeLength="151.44" timeLoss="20.84" maxSpeed="1.40" waitingTime="8.85"/>
    </personinfo>
    <tripinfo id="D1_1.1" depart="46.15" departLane="140483224#1_1" departPos="2.30" departPosLat="0.00" departSpeed="29.74" departDelay="0.00" arrival="200.95" arrivalLane="-793339796#2_2" arrivalPos="83.13" arrivalPosLat="0.00" arrivalSpeed="29.71" duration="154.80" routeLength="1651.27" waitingTime="66.65" waitingCount="3" stopTime="0.00" timeLoss="97.07" rerouteNo="1" devices="tripinfo_D1_1.1 routing_D1_1.1" vType="tricycle" speedFactor="1.07" vaporized=""/>
    <tripinfo id="D1_1.2" depart="58.55" departLane="140483224#1_1" departPos="2.30" departPosLat="0.00" departSpeed="27.78" departDelay="0.00" arrival="203.50" arrivalLane="-793339796#2_2" arrivalPos="83.13" arrivalPosLat="0.00" arrivalSpeed="27.73" duration="144.95" routeLength="1651.27" waitingTime="55.40" waitingCount="2" stopTime="0.00" timeLoss="83.10" rerouteNo="1" devices="tripinfo_D1_1.2 routing_D1_1.2" vType="tricycle" speedFactor="1.00" vaporized=""/>
    <tripinfo id="B1_1.0" depart="37.80" departLane="-361257727#0_1" departPos="5.10" departPosLat="0.00" departSpeed="8.02" departDelay="0.00" arrival="205.80" arrivalLane="-793339796#2_2" arrivalPos="83.13" arrivalPosLat="0.00" arrivalSpeed="26.70" duration="168.00" routeLength="1915.62" waitingTime="2.20" waitingCount="1" stopTime="0.00" timeLoss="28.12" rerouteNo="1" devices="tripinfo_B1_1.0 routing_B1_1.0" vType="car" speedFactor="0.96" vaporized=""/>
    <tripinfo id="D1_1.3" depart="118.00" departLane="140483224#1_1" departPos="2.30" departPosLat="0.00" departSpeed="28.91" departDelay="0.00" arrival="208.10" arrivalLane="-793339796#2_1" arrivalPos="83.13" arrivalPosLat="0.00" arrivalSpeed="28.87" duration="90.10" routeLength="1651.27" waitingTime="0.15" waitingCount="1" stopTime="0.00" timeLoss="30.70" rerouteNo="1" devices="tripinfo_D1_1.3 routing_D1_1.3" vType="tricycle" speedFactor="1.04" vaporized=""/>
    <tripinfo id="B2_1.0" depart="31.00" departLane="-361257727#0_1" departPos="5.10" departPosLat="0.00" departSpeed="9.74" departDelay="0.00" arrival="214.75" arrivalLane="-440471861#0_1" arrivalPos="31.49" arrivalPosLat="0.00" arrivalSpeed="32.46" duration="183.75" routeLength="1414.29" waitingTime="70.60" waitingCount="1" stopTime="0.00" timeLoss="81.94" rerouteNo="1" devices="tripinfo_B2_1.0 routing_B2_1.0" vType="car" speedFactor="1.17" vaporized=""/>
    <tripinfo id="A3_1.0" depart="107.30" departLane="-793339796#2_1" departPos="2.30" departPosLat="0.00" departSpeed="23.62" departDelay="0.00" arrival="215.65" arrivalLane="-140483224#1_2" arrivalPos="64.17" arrivalPosLat="0.00" arrivalSpeed="23.62" duration="108.35" routeLength="1084.53" waitingTime="51.30" waitingCount="3" stopTime="0.00" timeLoss="60.67" rerouteNo="1" devices="tripinfo_A3_1.0 routing_A3_1.0" vType="motorcycle" speedFactor="0.85" vaporized=""/>
    <tripinfo id="B2_1.1" depart="64.60" departLane="-361257727#0_1" departPos="5.10" departPosLat="0.00" departSpeed="7.58" departDelay="0.00" arrival="218.80" arrivalLane="-440471861#0_1" arrivalPos="31.49" arrivalPosLat="0.00" arrivalSpeed="25.28" duration="154.20" routeLength="1414.29" waitingTime="11.90" waitingCount="1" stopTime="0.00" timeLoss="23.51" rerouteNo="1" devices="tripinfo_B2_1.1 routing_B2_1.1" vType="car" speedFactor="0.91" vaporized=""/>
    <tripinfo id="A1_1.1" depart="125.65" departLane="-793339796#2_1" departPos="2.30" departPosLat="0.00" departSpeed="27.06" departDelay="0.00" arrival="219.70" arrivalLane="-145894807#0_1" arrivalPos="260.97" arrivalPosLat="0.00" arrivalSpeed="8.00" duration="94.05" routeLength="1060.25" waitingTime="0.00" waitingCount="0" stopTime="0.00" timeLoss="2.04" rerouteNo="1" devices="tripinfo_A1_1.1 routing_A1_1.1" vType="motorcycle" speedFactor="0.97" vaporized=""/>
    <personinfo id="pf_1.3" depart="108.00" type="ped" speedFactor="1.08" duration="111.90" waitingTime="0.00" timeLoss="11.19" traveltime="111.90">
        <walk depart="108.00" departPos="25.00" arrival="219.90" arrivalPos="7.46" duration="111.90" routeLength="151.44" timeLoss="11.19" maxSpeed="1.50" waitingTime="0.00"/>
    </personinfo>
    <tripinfo id="B2_1.2" depart="75.15" departLane="-361257727#0_1" departPos="5.10" departPosLat="0.00" departSpeed="7.68" departDelay="0.00" arrival="220.05" arrivalLane="-440471861#0_1" arrivalPos="31.49" arrivalPosLat="0.00" arrivalSpeed="25.60" duration="144.90" routeLength="1414.29" waitingTime="4.05" waitingCount="1" stopTime="0.00" timeLoss="15.99" rerouteNo="1" devices="tripinfo_B2_1.2 routing_B2_1.2" vType="car" speedFactor="0.92" vaporized=""/>
    <tripinfo id="A1_1.2" depart="154.60" departLane="-793339796#2_1" departPos="2.30" departPosLat="0.00" departSpeed="31.66" departDelay="0.00" arrival="235.40" arrivalLane="-145894807#0_1" arrivalPos="260.97" arrivalPosLat="0.00" arrivalSpeed="9.49" duration="80.80" routeLength="1060.25" waitingTime="0.00" waitingCount="0" stopTime="0.00" timeLoss="2.13" rerouteNo="1" devices="tripinfo_A1_1.2 routing_A1_1.2" vType="motorcycle" speedFactor="1.14" vaporized=""/>
    <personinfo id="pf_1.4" depart="144.00" type="ped" speedFactor="1.03" duration="118.00" waitingTime="0.50" timeLoss="12.17" traveltime="118.00">
        <walk depart="144.00" departPos="25.00" arrival="262.00" arrivalPos="7.46" duration="118.00" routeLength="151.44" timeLoss="12.17" maxSpeed="1.43" waitingTime="0.50"/>
    </personinfo>
    <tripinfo id="C3_1.3" depart="180.75" departLane="440471861#0_1" departPos="5.10" departPosLat="0.00" departSpeed="26.94" departDelay="0.00" arrival="279.30" arrivalLane="-140483224#1_2" arrivalPos="64.17" arrivalPosLat="0.00" arrivalSpeed="26.92" duration="98.55" routeLength="1053.95" waitingTime="36.20" waitingCount="2" stopTime="0.00" timeLoss="58.28" rerouteNo="1" devices="tripinfo_C3_1.3 routing_C3_1.3" vType="car" speedFactor="0.97" vaporized=""/>
    <tripinfo id="C3_1.2" depart="161.95" departLane="440471861#0_1" departPos="5.10" departPosLat="0.00" departSpeed="24.74" departDelay="0.00" arrival="280.25" arrivalLane="-140483224#1_1" arrivalPos="64.17" arrivalPosLat="-0.00" arrivalSpeed="24.70" duration="118.30" routeLength="1053.95" waitingTime="60.55" waitingCount="2" stopTime="0.00" timeLoss="74.45" rerouteNo="1" devices="tripinfo_C3_1.2 routing_C3_1.2" vType="car" speedFactor="0.89" vaporized=""/>
    <tripinfo id="D3_1.2" depart="208.30" departLane="140483224#1_1" departPos="2.30" departPosLat="0.00" departSpeed="27.02" departDelay="0.00" arrival="280.75" arrivalLane="-440471861#0_2" arrivalPos="31.49" arrivalPosLat="0.00" arrivalSpeed="26.93" duration="72.45" routeLength="1071.91" waitingTime="25.95" waitingCount="1" stopTime="0.00" timeLoss="31.29" rerouteNo="1" devices="tripinfo_D3_1.2 routing_D3_1.2" vType="motorcycle" speedFactor="0.97" vaporized=""/>
    <tripinfo id="C2_1.1" depart="161.10" departLane="440471861#0_2" departPos="5.10" departPosLat="0.00" departSpeed="28.93" departDelay="0.00" arrival="290.40" arrivalLane="-145894807#0_1" arrivalPos="260.97" arrivalPosLat="0.00" arrivalSpeed="8.64" duration="129.30" routeLength="1099.91" waitingTime="38.25" waitingCount="1" stopTime="0.00" timeLoss="45.41" rerouteNo="1" devices="tripinfo_C2_1.1 routing_C2_1.1" vType="car" speedFactor="1.04" vaporized=""/>
    <tripinfo id="A2_1.1" depart="261.45" departLane="-793339796#2_1" departPos="8.10" departPosLat="0.00" departSpeed="29.72" departDelay="0.00" arrival="304.30" arrivalLane="-440471861#0_1" arrivalPos="31.49" arrivalPosLat="0.00" arrivalSpeed="29.72" duration="42.85" routeLength="1078.89" waitingTime="0.00" waitingCount="0" stopTime="0.00" timeLoss="6.54" rerouteNo="1" devices="tripinfo_A2_1.1 routing_A2_1.1" vType="jeep" speedFactor="1.07" vaporized=""/>
    <tripinfo id="D1_1.4" depart="178.90" departLane="140483224#1_1" departPos="5.10" departPosLat="0.00" departSpeed="31.36" departDelay="0.00" arrival="309.75" arrivalLane="-793339796#2_2" arrivalPos="83.13" arrivalPosLat="0.00" arrivalSpeed="31.32" duration="130.85" routeLength="1648.47" waitingTime="51.70" waitingCount="1" stopTime="0.00" timeLoss="76.18" rerouteNo="1" devices="tripinfo_D1_1.4 routing_D1_1.4" vType="car" speedFactor="1.13" vaporized=""/>
    <tripinfo id="D1_1.5" depart="226.35" departLane="140483224#1_1" departPos="5.10" departPosLat="0.00" departSpeed="30.89" departDelay="0.00" arrival="313.25" arrivalLane="-793339796#2_2" arrivalPos="83.13" arrivalPosLat="0.00" arrivalSpeed="30.87" duration="86.90" routeLength="1648.47" waitingTime="7.60" waitingCount="1" stopTime="0.00" timeLoss="31.31" rerouteNo="1" devices="tripinfo_D1_1.5 routing_D1_1.5" vType="car" speedFactor="1.11" vaporized=""/>
    <tripinfo id="A1_1.3" depart="222.65" departLane="-793339796#2_1" departPos="7.20" departPosLat="0.00" departSpeed="27.11" departDelay="0.00" arrival="325.85" arrivalLane="-145894807#0_1" arrivalPos="260.97" arrivalPosLat="0.00" arrivalSpeed="8.13" duration="103.20" routeLength="1055.35" waitingTime="2.55" waitingCount="1" stopTime="0.00" timeLoss="11.54" rerouteNo="1" devices="tripinfo_A1_1.3 routing_A1_1.3" vType="truck" speedFactor="0.98" vaporized=""/>
    <tripinfo id="B1_1.1" depart="171.30" departLane="-361257727#0_1" departPos="7.20" departPosLat="0.00" departSpeed="8.86" departDelay="0.00" arrival="327.00" arrivalLane="-793339796#2_2" arrivalPos="83.13" arrivalPosLat="0.00" arrivalSpeed="25.48" duration="155.70" routeLength="1913.52" waitingTime="0.00" waitingCount="0" stopTime="0.00" timeLoss="29.29" rerouteNo="1" devices="tripinfo_B1_1.1 routing_B1_1.1" vType="truck" speedFactor="1.06" vaporized=""/>
    <personinfo id="pf_1.5" depart="180.00" type="ped" speedFactor="0.83" duration="153.40" waitingTime="7.70" timeLoss="22.19" traveltime="153.40">
        <walk depart="180.00" departPos="25.00" arrival="333.40" arrivalPos="7.46" duration="153.40" routeLength="151.44" timeLoss="22.19" maxSpeed="1.15" waitingTime="7.70"/>
    </personinfo>
    <personinfo id="pf_1.6" depart="216.00" type="ped" speedFactor="1.05" duration="117.80" waitingTime="0.40" timeLoss="13.54" traveltime="117.80">
        <walk depart="216.00" departPos="25.00" arrival="333.80" arrivalPos="7.46" duration="117.80" routeLength="151.44" timeLoss="13.54" maxSpeed="1.45" waitingTime="0.40"/>
    </personinfo>
    <tripinfo id="A3_1.1" depart="148.50" departLane="-793339796#2_1" departPos="2.30" departPosLat="0.00" departSpeed="32.00" departDelay="0.00" arrival="335.10" arrivalLane="-140483224#1_2" arrivalPos="64.17" arrivalPosLat="0.00" arrivalSpeed="31.92" duration="186.60" routeLength="1084.53" waitingTime="139.75" waitingCount="3" stopTime="0.00" timeLoss="151.44" rerouteNo="1" devices="tripinfo_A3_1.1 routing_A3_1.1" vType="motorcycle" speedFactor="1.15" vaporized=""/>
    <tripinfo id="A3_1.2" depart="227.15" departLane="-793339796#2_2" departPos="5.10" departPosLat="0.00" departSpeed="28.96" departDelay="0.00" arrival="340.55" arrivalLane="-140483224#1_1" arrivalPos="64.17" arrivalPosLat="-0.00" arrivalSpeed="28.95" duration="113.40" routeLength="1081.73" waitingTime="45.25" waitingCount="3" stopTime="0.00" timeLoss="74.65" rerouteNo="1" devices="tripinfo_A3_1.2 routing_A3_1.2" vType="car" speedFactor="1.04" vaporized=""/>
    <tripinfo id="B2_1.3" depart="198.55" departLane="-361257727#0_1" departPos="5.10" departPosLat="0.00" departSpeed="6.34" departDelay="0.00" arrival="359.10" arrivalLane="-440471861#0_1" arrivalPos="31.49" arrivalPosLat="0.00" arrivalSpeed="21.12" duration="160.55" routeLength="1414.29" waitingTime="0.00" waitingCount="0" stopTime="0.00" timeLoss="4.19" rerouteNo="1" devices="tripinfo_B2_1.3 routing_B2_1.3" vType="car" speedFactor="0.76" vaporized=""/>
    <personinfo id="pf_1.7" depart="252.00" type="ped" speedFactor="0.89" duration="140.50" waitingTime="3.55" timeLoss="17.43" traveltime="140.50">
        <walk depart="252.00" departPos="25.00" arrival="392.50" arrivalPos="7.46" duration="140.50" routeLength="151.44" timeLoss="17.43" maxSpeed="1.23" waitingTime="3.55"/>
    </personinfo>
    <tripinfo id="C1_1.2" depart="288.55" departLane="440471861#0_1" departPos="8.10" departPosLat="0.00" departSpeed="28.18" departDelay="0.00" arrival="399.30" arrivalLane="-793339796#2_2" arrivalPos="83.13" arrivalPosLat="0.00" arrivalSpeed="28.18" duration="110.75" routeLength="1651.03" waitingTime="33.20" waitingCount="1" stopTime="0.00" timeLoss="51.01" rerouteNo="1" devices="tripinfo_C1_1.2 routing_C1_1.2" vType="jeep" speedFactor="1.01" vaporized=""/>
    <tripinfo id="C3_1.4" depart="308.85" departLane="440471861#0_1" departPos="5.10" departPosLat="0.00" departSpeed="26.59" departDelay="0.00" arrival="402.95" arrivalLane="-140483224#1_1" arrivalPos="64.17" arrivalPosLat="-0.00" arrivalSpeed="26.57" duration="94.10" routeLength="1053.95" waitingTime="32.95" waitingCount="2" stopTime="0.00" timeLoss="53.25" rerouteNo="1" devices="tripinfo_C3_1.4 routing_C3_1.4" vType="car" speedFactor="0.96" vaporized=""/>
    <tripinfo id="A1_1.4" depart="277.50" departLane="-793339796#2_1" departPos="5.10" departPosLat="0.00" departSpeed="19.69" departDelay="0.00" arrival="406.55" arrivalLane="-145894807#0_1" arrivalPos="260.97" arrivalPosLat="0.00" arrivalSpeed="5.84" duration="129.05" routeLength="1057.45" waitingTime="0.00" waitingCount="0" stopTime="0.00" timeLoss="2.77" rerouteNo="1" devices="tripinfo_A1_1.4 routing_A1_1.4" vType="car" speedFactor="0.71" vaporized=""/>
    <tripinfo id="D3_1.3" depart="358.75" departLane="140483224#1_1" departPos="2.30" departPosLat="0.00" departSpeed="24.08" departDelay="0.00" arrival="406.85" arrivalLane="-440471861#0_2" arrivalPos="31.49" arrivalPosLat="0.00" arrivalSpeed="23.93" duration="48.10" routeLength="1071.91" waitingTime="0.00" waitingCount="0" stopTime="0.00" timeLoss="1.90" rerouteNo="1" devices="tripinfo_D3_1.3 routing_D3_1.3" vType="motorcycle" speedFactor="0.87" vaporized=""/>
    <tripinfo id="A1_1.5" depart="322.60" departLane="-793339796#2_1" departPos="12.10" departPosLat="0.00" departSpeed="27.78" departDelay="0.00" arrival="416.75" arrivalLane="-145894807#0_1" arrivalPos="260.97" arrivalPosLat="0.00" arrivalSpeed="8.33" duration="94.15" routeLength="1050.45" waitingTime="0.00" waitingCount="0" stopTime="0.00" timeLoss="4.85" rerouteNo="1" devices="tripinfo_A1_1.5 routing_A1_1.5" vType="bus" speedFactor="1.00" vaporized=""/>
    <tripinfo id="A2_1.2" depart="337.55" departLane="-793339796#2_1" departPos="2.30" departPosLat="0.00" departSpeed="35.06" departDelay="0.00" arrival="424.15" arrivalLane="-440471861#0_1" arrivalPos="31.49" arrivalPosLat="0.00" arrivalSpeed="34.97" duration="86.60" routeLength="1084.69" waitingTime="46.00" waitingCount="2" stopTime="0.00" timeLoss="55.63" rerouteNo="1" devices="tripinfo_A2_1.2 routing_A2_1.2" vType="motorcycle" speedFactor="1.26" vaporized=""/>
    <tripinfo id="A1_1.6" depart="329.65" departLane="-793339796#2_1" departPos="8.10" departPosLat="0.00" departSpeed="26.12" departDelay="0.00" arrival="428.10" arrivalLane="-145894807#0_1" arrivalPos="260.97" arrivalPosLat="0.00" arrivalSpeed="7.79" duration="98.45" routeLength="1054.45" waitingTime="0.00" waitingCount="0" stopTime="0.00" timeLoss="3.39" rerouteNo="1" devices="tripinfo_A1_1.6 routing_A1_1.6" vType="jeep" speedFactor="0.94" vaporized=""/>
    <tripinfo id="D3_1.4" depart="380.35" departLane="140483224#1_2" departPos="8.10" departPosLat="0.00" departSpeed="24.53" departDelay="0.00" arrival="429.45" arrivalLane="-440471861#0_2" arrivalPos="31.49" arrivalPosLat="0.00" arrivalSpeed="24.50" duration="49.10" routeLength="1066.11" waitingTime="0.00" waitingCount="0" stopTime="0.00" timeLoss="4.00" rerouteNo="1" devices="tripinfo_D3_1.4 routing_D3_1.4" vType="jeep" speedFactor="0.88" vaporized=""/>
    <tripinfo id="C2_1.2" depart="289.65" departLane="440471861#0_2" departPos="5.10" departPosLat="0.00" departSpeed="31.01" departDelay="0.00" arrival="430.15" arrivalLane="-145894807#0_1" arrivalPos="260.97" arrivalPosLat="0.00" arrivalSpeed="9.24" duration="140.50" routeLength="1099.91" waitingTime="43.35" waitingCount="2" stopTime="0.00" timeLoss="62.27" rerouteNo="1" devices="tripinfo_C2_1.2 routing_C2_1.2" vType="car" speedFactor="1.12" vaporized=""/>
    <tripinfo id="D1_1.6" depart="284.85" departLane="140483224#1_1" departPos="5.10" departPosLat="0.00" departSpeed="29.54" departDelay="0.00" arrival="440.45" arrivalLane="-793339796#2_2" arrivalPos="83.13" arrivalPosLat="0.00" arrivalSpeed="29.53" duration="155.60" routeLength="1648.47" waitingTime="66.70" waitingCount="3" stopTime="0.00" timeLoss="97.56" rerouteNo="1" devices="tripinfo_D1_1.6 routing_D1_1.6" vType="car" speedFactor="1.06" vaporized=""/>
    <tripinfo id="A1_1.7" depart="342.40" departLane="-793339796#2_1" departPos="2.30" departPosLat="0.00" departSpeed="25.75" departDelay="0.00" arrival="441.20" arrivalLane="-145894807#0_1" arrivalPos="260.97" arrivalPosLat="0.00" arrivalSpeed="7.69" duration="98.80" routeLength="1060.25" waitingTime="0.00" waitingCount="0" stopTime="0.00" timeLoss="2.17" rerouteNo="1" devices="tripinfo_A1_1.7 routing_A1_1.7" vType="tricycle" speedFactor="0.93" vaporized=""/>
    <tripinfo id="D2_1.0" depart="290.30" departLane="140483224#1_1" departPos="8.10" departPosLat="0.00" departSpeed="31.44" departDelay="0.00" arrival="443.00" arrivalLane="-145894807#0_1" arrivalPos="260.97" arrivalPosLat="0.00" arrivalSpeed="9.38" duration="152.70" routeLength="1106.87" waitingTime="50.00" waitingCount="2" stopTime="0.00" timeLoss="75.65" rerouteNo="1" devices="tripinfo_D2_1.0 routing_D2_1.0" vType="jeep" speedFactor="1.13" vaporized=""/>
    <tripinfo id="C1_1.3" depart="324.05" departLane="440471861#0_1" departPos="5.10" departPosLat="0.00" departSpeed="26.79" departDelay="0.00" arrival="444.90" arrivalLane="-793339796#2_2" arrivalPos="83.13" arrivalPosLat="0.00" arrivalSpeed="26.78" duration="120.85" routeLength="1654.03" waitingTime="31.80" waitingCount="1" stopTime="0.00" timeLoss="57.91" rerouteNo="1" devices="tripinfo_C1_1.3 routing_C1_1.3" vType="car" speedFactor="0.96" vaporized=""/>
    <tripinfo id="D1_1.7" depart="370.50" departLane="140483224#1_1" departPos="2.30" departPosLat="0.00" departSpeed="26.75" departDelay="0.00" arrival="449.85" arrivalLane="-793339796#2_2" arrivalPos="83.13" arrivalPosLat="0.00" arrivalSpeed="26.71" duration="79.35" routeLength="1651.27" waitingTime="0.00" waitingCount="0" stopTime="0.00" timeLoss="15.15" rerouteNo="1" devices="tripinfo_D1_1.7 routing_D1_1.7" vType="tricycle" speedFactor="0.96" vaporized=""/>
    <personinfo id="pf_1.8" depart="288.00" type="ped" speedFactor="0.94" duration="163.30" waitingTime="34.40" timeLoss="47.04" traveltime="163.30">
        <walk depart="288.00" departPos="25.00" arrival="451.30" arrivalPos="7.46" duration="163.30" routeLength="151.44" timeLoss="47.04" maxSpeed="1.30" waitingTime="34.40"/>
    </personinfo>
    <personinfo id="pf_1.9" depart="324.00" type="ped" speedFactor="0.86" duration="141.20" waitingTime="0.00" timeLoss="13.96" traveltime="141.20">
        <walk depart="324.00" departPos="25.00" arrival="465.20" arrivalPos="7.46" duration="141.20" routeLength="151.44" timeLoss="13.96" maxSpeed="1.19" waitingTime="0.00"/>
    </personinfo>
    <tripinfo id="B2_1.4" depart="306.80" departLane="-361257727#0_1" departPos="8.10" departPosLat="0.00" departSpeed="8.30" departDelay="0.00" arrival="466.90" arrivalLane="-440471861#0_1" arrivalPos="31.49" arrivalPosLat="0.00" arrivalSpeed="27.65" duration="160.10" routeLength="1411.29" waitingTime="26.00" waitingCount="1" stopTime="0.00" timeLoss="41.06" rerouteNo="1" devices="tripinfo_B2_1.4 routing_B2_1.4" vType="jeep" speedFactor="1.00" vaporized=""/>
    <personinfo id="pf_1.10" depart="360.00" type="ped" speedFactor="1.09" duration="110.85" waitingTime="0.00" timeLoss="10.88" traveltime="110.85">
        <walk depart="360.00" departPos="25.00" arrival="470.85" arrivalPos="7.46" duration="110.85" routeLength="151.44" timeLoss="10.88" maxSpeed="1.51" waitingTime="0.00"/>
    </personinfo>
    <tripinfo id="B3_1.0" depart="241.30" departLane="-361257727#0_1" departPos="12.10" departPosLat="0.00" departSpeed="8.33" departDelay="0.00" arrival="470.85" arrivalLane="-140483224#1_1" arrivalPos="64.17" arrivalPosLat="0.00" arrivalSpeed="27.77" duration="229.55" routeLength="1420.11" waitingTime="91.80" waitingCount="1" stopTime="0.00" timeLoss="111.22" rerouteNo="1" devices="tripinfo_B3_1.0 routing_B3_1.0" vType="bus" speedFactor="1.00" vaporized=""/>
    <tripinfo id="A1_1.8" depart="383.20" departLane="-793339796#2_1" departPos="7.20" departPosLat="0.00" departSpeed="27.02" departDelay="0.00" arrival="479.65" arrivalLane="-145894807#0_1" arrivalPos="260.97" arrivalPosLat="0.00" arrivalSpeed="8.09" duration="96.45" routeLength="1055.35" waitingTime="0.00" waitingCount="0" stopTime="0.00" timeLoss="4.51" rerouteNo="1" devices="tripinfo_A1_1.8 routing_A1_1.8" vType="truck" speedFactor="0.97" vaporized=""/>
    <tripinfo id="A1_1.9" depart="411.25" departLane="-793339796#2_1" departPos="2.30" departPosLat="0.00" departSpeed="28.30" departDelay="0.00" arrival="501.25" arrivalLane="-145894807#0_1" arrivalPos="260.97" arrivalPosLat="0.00" arrivalSpeed="8.34" duration="90.00" routeLength="1060.25" waitingTime="0.00" waitingCount="0" stopTime="0.00" timeLoss="2.03" rerouteNo="1" devices="tripinfo_A1_1.9 routing_A1_1.9" vType="motorcycle" speedFactor="1.02" vaporized=""/>
    <personinfo id="pf_1.11" depart="396.00" type="ped" speedFactor="1.03" duration="118.15" waitingTime="0.00" timeLoss="11.91" traveltime="118.15">
        <walk depart="396.00" departPos="25.00" arrival="514.15" arrivalPos="7.46" duration="118.15" routeLength="151.44" timeLoss="11.91" maxSpeed="1.43" waitingTime="0.00"/>
    </personinfo>
    <tripinfo id="C1_1.4" depart="435.90" departLane="440471861#0_1" departPos="8.10" departPosLat="0.00" departSpeed="30.66" departDelay="0.00" arrival="520.30" arrivalLane="-793339796#2_2" arrivalPos="83.13" arrivalPosLat="0.00" arrivalSpeed="30.61" duration="84.40" routeLength="1651.03" waitingTime="8.65" waitingCount="1" stopTime="0.00" timeLoss="29.54" rerouteNo="1" devices="tripinfo_C1_1.4 routing_C1_1.4" vType="jeep" speedFactor="1.10" vaporized=""/>
    <tripinfo id="C2_1.3" depart="379.20" departLane="440471861#0_2" departPos="5.10" departPosLat="0.00" departSpeed="23.74" departDelay="0.00" arrival="549.65" arrivalLane="-145894807#0_1" arrivalPos="260.97" arrivalPosLat="0.00" arrivalSpeed="7.08" duration="170.45" routeLength="1099.91" waitingTime="62.25" waitingCount="1" stopTime="0.00" timeLoss="68.29" rerouteNo="1" devices="tripinfo_C2_1.3 routing_C2_1.3" vType="car" speedFactor="0.85" vaporized=""/>