<?xml version="1.0" encoding="UTF-8"?>

<!-- generated on 2025-11-18 14:51:29 by Eclipse SUMO GUI Version 1.24.0
<sumoConfiguration xmlns:xsi="http://www.w3.org/2001/XMLSchema-instance" xsi:noNamespaceSchemaLocation="http://sumo.dlr.de/xsd/sumoConfiguration.xsd">

    <input>
        <net-file value="Olivarez_traci\network/baseline.net.xml"/>
        <route-files value="Olivarez_traci\demand/flows_traffic_jam.rou.xml"/>
        <additional-files value="Olivarez_traci\additionals/map.poly.xml,Olivarez_traci\ additionals/detectors.add.xml"/>
    </input>

    <output>
        <tripinfo-output value="Olivarez_traci\output_DDPG\SD_DDPG_one_trafficlight_trips.xml"/>
        <statistic-output value="Olivarez_traci\output_DDPG\SD_DDPG_one_trafficlight_stats.xml"/>
    </output>

    <time>
        <begin value="0"/>
        <end value="10800"/>
        <step-length value="0.05"/>
    </time>

    <processing>
        <lateral-resolution value="0.1"/>
        <collision.action value="none"/>
        <collision.check-junctions value="false"/>
        <collision.mingap-factor value="0"/>
    </processing>

    <report>
        <no-warnings value="true"/>
    </report>

    <traci_server>
        <remote-port value="54625"/>
    </traci_server>

    <gui_only>
        <delay value="0"/>
    </gui_only>

</sumoConfiguration>
-->

<tripinfos xmlns:xsi="http://www.w3.org/2001/XMLSchema-instance" xsi:noNamespaceSchemaLocation="http://sumo.dlr.de/xsd/tripinfo_file.xsd">
    <personinfo id="pf_2.0" depart="0.00" type="ped" speedFactor="0.98" duration="24.90" waitingTime="0.00" timeLoss="2.55" traveltime="24.90">
        <walk depart="0.00" departPos="15.72" arrival="24.90" arrivalPos="4.00" duration="24.90" routeLength="30.33" timeLoss="2.55" maxSpeed="1.36" waitingTime="0.00"/>
    </personinfo>
    <personinfo id="pf_2.1" depart="9.00" type="ped" speedFactor="1.03" duration="23.40" waitingTime="0.00" timeLoss="2.24" traveltime="23.40">
        <walk depart="9.00" departPos="15.72" arrival="32.40" arrivalPos="4.00" duration="23.40" routeLength="30.33" timeLoss="2.24" maxSpeed="1.43" waitingTime="0.00"/>
    </personinfo>
    <personinfo id="pf_2.2" depart="18.00" type="ped" speedFactor="1.02" duration="23.75" waitingTime="0.00" timeLoss="2.30" traveltime="23.75">
        <walk depart="18.00" departPos="15.72" arrival="41.75" arrivalPos="4.00" duration="23.75" routeLength="30.33" timeLoss="2.30" maxSpeed="1.41" waitingTime="0.00"/>
    </personinfo>
    <personinfo id="pf_2.3" depart="27.00" type="ped" speedFactor="1.09" duration="22.20" waitingTime="0.00" timeLoss="2.16" traveltime="22.20">
        <walk depart="27.00" departPos="15.72" arrival="49.20" arrivalPos="4.00" duration="22.20" routeLength="30.33" timeLoss="2.16" maxSpeed="1.51" waitingTime="0.00"/>
    </personinfo>
    <tripinfo id="D3_1.0" depart="7.65" departLane="140483224#1_2" departPos="8.10" departPosLat="0.00" departSpeed="27.78" departDelay="0.00" arrival="55.70" arrivalLane="-440471861#0_2" arrivalPos="31.49" arrivalPosLat="0.00" arrivalSpeed="27.75" duration="48.05" routeLength="1066.09" waitingTime="0.00" waitingCount="0" stopTime="0.00" timeLoss="8.19" rerouteNo="1" devices="tripinfo_D3_1.0 routing_D3_1.0" vType="jeep" speedFactor="1.00" vaporized=""/>
    <personinfo id="pf_2.4" depart="36.00" type="ped" speedFactor="1.10" duration="21.95" waitingTime="0.00" timeLoss="2.09" traveltime="21.95">
        <walk depart="36.00" departPos="15.72" arrival="57.95" arrivalPos="4.00" duration="21.95" routeLength="30.33" timeLoss="2.09" maxSpeed="1.53" waitingTime="0.00"/>
    </personinfo>
    <tripinfo id="A2_1.0" depart="4.45" departLane="-793339796#2_1" departPos="5.10" departPosLat="0.00" departSpeed="30.27" departDelay="0.00" arrival="63.45" arrivalLane="-440471861#0_1" arrivalPos="31.49" arrivalPosLat="0.00" arrivalSpeed="30.23" duration="59.00" routeLength="1081.89" waitingTime="12.45" waitingCount="1" stopTime="0.00" timeLoss="23.22" rerouteNo="1" devices="tripinfo_A2_1.0 routing_A2_1.0" vType="car" speedFactor="1.09" vaporized=""/>
    <tripinfo id="A2_1.1" depart="8.20" departLane="-793339796#2_1" departPos="2.30" departPosLat="0.00" departSpeed="24.59" departDelay="0.00" arrival="67.30" arrivalLane="-440471861#0_1" arrivalPos="31.49" arrivalPosLat="1.18" arrivalSpeed="24.56" duration="59.10" routeLength="1084.69" waitingTime="2.75" waitingCount="1" stopTime="0.00" timeLoss="14.96" rerouteNo="1" devices="tripinfo_A2_1.1 routing_A2_1.1" vType="motorcycle" speedFactor="0.89" vaporized=""/>
    <tripinfo id="A2_1.3" depart="27.05" departLane="-793339796#2_1" departPos="2.30" departPosLat="0.00" departSpeed="29.85" departDelay="0.00" arrival="67.75" arrivalLane="-440471861#0_2" arrivalPos="31.49" arrivalPosLat="0.00" arrivalSpeed="29.77" duration="40.70" routeLength="1084.69" waitingTime="0.00" waitingCount="0" stopTime="0.00" timeLoss="4.34" rerouteNo="1" devices="tripinfo_A2_1.3 routing_A2_1.3" vType="motorcycle" speedFactor="1.07" vaporized=""/>
    <tripinfo id="A2_1.2" depart="20.70" departLane="-793339796#2_1" departPos="8.10" departPosLat="0.00" departSpeed="27.78" departDelay="0.00" arrival="67.90" arrivalLane="-440471861#0_1" arrivalPos="31.49" arrivalPosLat="-0.11" arrivalSpeed="27.77" duration="47.20" routeLength="1078.89" waitingTime="0.00" waitingCount="0" stopTime="0.00" timeLoss="8.36" rerouteNo="1" devices="tripinfo_A2_1.2 routing_A2_1.2" vType="jeep" speedFactor="1.00" vaporized=""/>
    <personinfo id="pf_2.5" depart="45.00" type="ped" speedFactor="0.95" duration="25.50" waitingTime="0.00" timeLoss="2.58" traveltime="25.50">
        <walk depart="45.00" departPos="15.72" arrival="70.50" arrivalPos="4.00" duration="25.50" routeLength="30.33" timeLoss="2.58" maxSpeed="1.32" waitingTime="0.00"/>
    </personinfo>
    <tripinfo id="A3_1.0" depart="15.50" departLane="-793339796#2_2" departPos="8.10" departPosLat="0.00" departSpeed="27.78" departDelay="0.00" arrival="72.20" arrivalLane="-140483224#1_2" arrivalPos="64.17" arrivalPosLat="0.00" arrivalSpeed="27.77" duration="56.70" routeLength="1078.71" waitingTime="0.00" waitingCount="0" stopTime="0.00" timeLoss="16.35" rerouteNo="1" devices="tripinfo_A3_1.0 routing_A3_1.0" vType="jeep" speedFactor="1.00" vaporized=""/>
    <tripinfo id="A3_1.1" depart="30.50" departLane="-793339796#2_1" departPos="12.10" departPosLat="0.00" departSpeed="27.78" departDelay="0.00" arrival="78.20" arrivalLane="-140483224#1_2" arrivalPos="64.17" arrivalPosLat="0.00" arrivalSpeed="27.75" duration="47.70" routeLength="1074.71" waitingTime="0.00" waitingCount="0" stopTime="0.00" timeLoss="7.53" rerouteNo="1" devices="tripinfo_A3_1.1 routing_A3_1.1" vType="bus" speedFactor="1.00" vaporized=""/>
    <tripinfo id="D1_1.0" depart="0.60" departLane="140483224#1_1" departPos="2.30" departPosLat="0.00" departSpeed="23.35" departDelay="0.00" arrival="79.05" arrivalLane="-793339796#2_2" arrivalPos="83.13" arrivalPosLat="0.00" arrivalSpeed="23.25" duration="78.45" routeLength="1651.25" waitingTime="0.00" waitingCount="0" stopTime="0.00" timeLoss="4.95" rerouteNo="1" devices="tripinfo_D1_1.0 routing_D1_1.0" vType="motorcycle" speedFactor="0.84" vaporized=""/>
    <personinfo id="pf_2.6" depart="54.00" type="ped" speedFactor="0.96" duration="25.15" waitingTime="0.00" timeLoss="2.38" traveltime="25.15">
        <walk depart="54.00" departPos="15.72" arrival="79.15" arrivalPos="4.00" duration="25.15" routeLength="30.33" timeLoss="2.38" maxSpeed="1.33" waitingTime="0.00"/>
    </personinfo>
    <personinfo id="pf_2.7" depart="63.00" type="ped" speedFactor="0.86" duration="28.05" waitingTime="0.00" timeLoss="2.66" traveltime="28.05">
        <walk depart="63.00" departPos="15.72" arrival="91.05" arrivalPos="4.00" duration="28.05" routeLength="30.33" timeLoss="2.66" maxSpeed="1.19" waitingTime="0.00"/>
    </personinfo>
    <personinfo id="pf_2.8" depart="72.00" type="ped" speedFactor="1.01" duration="23.85" waitingTime="0.00" timeLoss="2.32" traveltime="23.85">
        <walk depart="72.00" departPos="15.72" arrival="95.85" arrivalPos="4.00" duration="23.85" routeLength="30.33" timeLoss="2.32" maxSpeed="1.41" waitingTime="0.00"/>
    </personinfo>
    <tripinfo id="A2_1.4" depart="62.90" departLane="-793339796#2_1" departPos="2.30" departPosLat="0.00" departSpeed="27.20" departDelay="0.00" arrival="102.90" arrivalLane="-440471861#0_1" arrivalPos="31.49" arrivalPosLat="0.00" arrivalSpeed="27.10" duration="40.00" routeLength="1084.69" waitingTime="0.00" waitingCount="0" stopTime="0.00" timeLoss="0.11" rerouteNo="1" devices="tripinfo_A2_1.4 routing_A2_1.4" vType="motorcycle" speedFactor="0.98" vaporized=""/>
    <personinfo id="pf_2.9" depart="81.00" type="ped" speedFactor="0.99" duration="24.25" waitingTime="0.00" timeLoss="2.26" traveltime="24.25">
        <walk depart="81.00" departPos="15.72" arrival="105.25" arrivalPos="4.00" duration="24.25" routeLength="30.33" timeLoss="2.26" maxSpeed="1.38" waitingTime="0.00"/>
    </personinfo>
    <tripinfo id="A3_1.2" depart="63.55" departLane="-793339796#2_2" departPos="5.10" departPosLat="0.00" departSpeed="28.57" departDelay="0.00" arrival="107.10" arrivalLane="-140483224#1_2" arrivalPos="64.17" arrivalPosLat="0.00" arrivalSpeed="28.53" duration="43.55" routeLength="1081.71" waitingTime="0.00" waitingCount="0" stopTime="0.00" timeLoss="4.26" rerouteNo="1" devices="tripinfo_A3_1.2 routing_A3_1.2" vType="car" speedFactor="1.03" vaporized=""/>
    <tripinfo id="A2_1.5" depart="64.95" departLane="-793339796#2_1" departPos="7.20" departPosLat="0.00" departSpeed="22.01" departDelay="0.00" arrival="107.55" arrivalLane="-440471861#0_1" arrivalPos="31.49" arrivalPosLat="0.00" arrivalSpeed="28.22" duration="42.60" routeLength="1079.79" waitingTime="0.00" waitingCount="0" stopTime="0.00" timeLoss="4.35" rerouteNo="1" devices="tripinfo_A2_1.5 routing_A2_1.5" vType="truck" speedFactor="1.02" vaporized=""/>
    <personinfo id="pf_2.10" depart="90.00" type="ped" speedFactor="1.10" duration="21.80" waitingTime="0.00" timeLoss="2.02" traveltime="21.80">
        <walk depart="90.00" departPos="15.72" arrival="111.80" arrivalPos="4.00" duration="21.80" routeLength="30.33" timeLoss="2.02" maxSpeed="1.53" waitingTime="0.00"/>
    </personinfo>
    <personinfo id="pf_2.11" depart="99.00" type="ped" speedFactor="0.98" duration="24.70" waitingTime="0.00" timeLoss="2.35" traveltime="24.70">
        <walk depart="99.00" departPos="15.72" arrival="123.70" arrivalPos="4.00" duration="24.70" routeLength="30.33" timeLoss="2.35" maxSpeed="1.36" waitingTime="0.00"/>
    </personinfo>
    <tripinfo id="B2_1.0" depart="6.95" departLane="-361257727#0_1" departPos="5.10" departPosLat="0.00" departSpeed="8.41" departDelay="0.00" arrival="130.05" arrivalLane="-440471861#0_1" arrivalPos="31.49" arrivalPosLat="0.00" arrivalSpeed="28.01" duration="123.10" routeLength="1414.29" waitingTime="0.00" waitingCount="0" stopTime="0.00" timeLoss="5.31" rerouteNo="1" devices="tripinfo_B2_1.0 routing_B2_1.0" vType="car" speedFactor="1.01" vaporized=""/>
    <personinfo id="pf_2.12" depart="108.00" type="ped" speedFactor="0.97" duration="25.05" waitingTime="0.00" timeLoss="2.49" traveltime="25.05">
        <walk depart="108.00" departPos="15.72" arrival="133.05" arrivalPos="4.00" duration="25.05" routeLength="30.33" timeLoss="2.49" maxSpeed="1.34" waitingTime="0.00"/>
    </personinfo>
    <tripinfo id="B2_1.1" depart="31.00" departLane="-361257727#0_1" departPos="5.10" departPosLat="0.00" departSpeed="9.05" departDelay="0.00" arrival="146.40" arrivalLane="-440471861#0_1" arrivalPos="31.49" arrivalPosLat="0.00" arrivalSpeed="30.16" duration="115.40" routeLength="1414.29" waitingTime="0.00" waitingCount="0" stopTime="0.00" timeLoss="5.85" rerouteNo="1" devices="tripinfo_B2_1.1 routing_B2_1.1" vType="car" speedFactor="1.09" vaporized=""/>
    <personinfo id="pf_2.13" depart="117.00" type="ped" speedFactor="0.80" duration="30.20" waitingTime="0.00" timeLoss="3.01" traveltime="30.20">
        <walk depart="117.00" departPos="15.72" arrival="147.20" arrivalPos="4.00" duration="30.20" routeLength="30.33" timeLoss="3.01" maxSpeed="1.12" waitingTime="0.00"/>
    </personinfo>
    <personinfo id="pf_2.14" depart="126.00" type="ped" speedFactor="1.00" duration="24.20" waitingTime="0.00" timeLoss="2.38" traveltime="24.20">
        <walk depart="126.00" departPos="15.72" arrival="150.20" arrivalPos="4.00" duration="24.20" routeLength="30.33" timeLoss="2.38" maxSpeed="1.39" waitingTime="0.00"/>
    </personinfo>
    <personinfo id="pf_2.15" depart="135.00" type="ped" speedFactor="1.07" duration="22.65" waitingTime="0.00" timeLoss="2.24" traveltime="22.65">
        <walk depart="135.00" departPos="15.72" arrival="157.65" arrivalPos="4.00" duration="22.65" routeLength="30.33" timeLoss="2.24" maxSpeed="1.49" waitingTime="0.00"/>
    </personinfo>
    <personinfo id="pf_2.16" depart="144.00" type="ped" speedFactor="1.13" duration="21.55" waitingTime="0.00" timeLoss="2.16" traveltime="21.55">
        <walk depart="144.00" departPos="15.72" arrival="165.55" arrivalPos="4.00" duration="21.55" routeLength="30.33" timeLoss="2.16" maxSpeed="1.56" waitingTime="0.00"/>
    </personinfo>
    <tripinfo id="C3_1.0" depart="11.40" departLane="440471861#0_1" departPos="2.30" departPosLat="0.00" departSpeed="23.68" departDelay="0.00" arrival="166.80" arrivalLane="-140483224#1_1" arrivalPos="64.17" arrivalPosLat="-0.00" arrivalSpeed="23.64" duration="155.40" routeLength="1056.73" waitingTime="101.75" waitingCount="1" stopTime="0.00" timeLoss="109.42" rerouteNo="1" devices="tripinfo_C3_1.0 routing_C3_1.0" vType="tricycle" speedFactor="0.85" vaporized=""/>
    <tripinfo id="C3_1.1" depart="23.60" departLane="440471861#0_1" departPos="5.10" departPosLat="0.00" departSpeed="28.05" departDelay="0.00" arrival="169.15" arrivalLane="-140483224#1_1" arrivalPos="64.17" arrivalPosLat="-0.00" arrivalSpeed="28.01" duration="145.55" routeLength="1053.93" waitingTime="87.05" waitingCount="1" stopTime="0.00" timeLoss="106.83" rerouteNo="1" devices="tripinfo_C3_1.1 routing_C3_1.1" vType="car" speedFactor="1.01" vaporized=""/>
    <tripinfo id="A1_1.0" depart="78.95" departLane="-793339796#2_1" departPos="7.20" departPosLat="0.00" departSpeed="29.14" departDelay="0.00" arrival="169.15" arrivalLane="-145894807#0_1" arrivalPos="260.97" arrivalPosLat="0.00" arrivalSpeed="8.72" duration="90.20" routeLength="1055.35" waitingTime="0.00" waitingCount="0" stopTime="0.00" timeLoss="4.95" rerouteNo="1" devices="tripinfo_A1_1.0 routing_A1_1.0" vType="truck" speedFactor="1.05" vaporized=""/>
    <tripinfo id="C3_1.2" depart="43.55" departLane="440471861#0_1" departPos="5.10" departPosLat="0.00" departSpeed="26.48" departDelay="0.00" arrival="172.70" arrivalLane="-140483224#1_1" arrivalPos="64.17" arrivalPosLat="-0.00" arrivalSpeed="26.47" duration="129.15" routeLength="1053.93" waitingTime="67.90" waitingCount="1" stopTime="0.00" timeLoss="88.11" rerouteNo="1" devices="tripinfo_C3_1.2 routing_C3_1.2" vType="car" speedFactor="0.95" vaporized=""/>
    <personinfo id="pf_2.17" depart="153.00" type="ped" speedFactor="1.11" duration="21.85" waitingTime="0.00" timeLoss="2.15" traveltime="21.85">
        <walk depart="153.00" departPos="15.72" arrival="174.85" arrivalPos="4.00" duration="21.85" routeLength="30.33" timeLoss="2.15" maxSpeed="1.54" waitingTime="0.00"/>
    </personinfo>
    <tripinfo id="C3_1.3" depart="54.65" departLane="440471861#0_1" departPos="7.20" departPosLat="0.00" departSpeed="25.35" departDelay="0.00" arrival="179.40" arrivalLane="-140483224#1_1" arrivalPos="64.17" arrivalPosLat="-0.00" arrivalSpeed="25.35" duration="124.75" routeLength="1051.83" waitingTime="57.70" waitingCount="1" stopTime="0.00" timeLoss="82.00" rerouteNo="1" devices="tripinfo_C3_1.3 routing_C3_1.3" vType="truck" speedFactor="0.91" vaporized=""/>
    <tripinfo id="C3_1.4" depart="78.25" departLane="440471861#0_1" departPos="5.10" departPosLat="0.00" departSpeed="27.76" departDelay="0.00" arrival="180.70" arrivalLane="-140483224#1_1" arrivalPos="64.17" arrivalPosLat="0.00" arrivalSpeed="27.69" duration="102.45" routeLength="1053.93" waitingTime="36.60" waitingCount="1" stopTime="0.00" timeLoss="63.31" rerouteNo="1" devices="tripinfo_C3_1.4 routing_C3_1.4" vType="car" speedFactor="1.00" vaporized=""/>
    <tripinfo id="C1_1.1" depart="28.55" departLane="440471861#0_1" departPos="2.30" departPosLat="0.00" departSpeed="30.61" departDelay="0.00" arrival="181.35" arrivalLane="-793339796#2_2" arrivalPos="83.13" arrivalPosLat="0.00" arrivalSpeed="30.61" duration="152.80" routeLength="1656.83" waitingTime="86.50" waitingCount="1" stopTime="0.00" timeLoss="97.67" rerouteNo="1" devices="tripinfo_C1_1.1 routing_C1_1.1" vType="motorcycle" speedFactor="1.10" vaporized=""/>
    <tripinfo id="C3_1.5" depart="104.00" departLane="440471861#0_1" departPos="2.30" departPosLat="0.00" departSpeed="25.22" departDelay="0.00" arrival="182.05" arrivalLane="-140483224#1_1" arrivalPos="64.17" arrivalPosLat="0.00" arrivalSpeed="25.18" duration="78.05" routeLength="1056.73" waitingTime="18.40" waitingCount="1" stopTime="0.00" timeLoss="34.90" rerouteNo="1" devices="tripinfo_C3_1.5 routing_C3_1.5" vType="tricycle" speedFactor="0.91" vaporized=""/>
    <tripinfo id="C3_1.6" depart="125.75" departLane="440471861#0_1" departPos="5.10" departPosLat="0.00" departSpeed="29.16" departDelay="0.00" arrival="184.45" arrivalLane="-140483224#1_1" arrivalPos="64.17" arrivalPosLat="0.00" arrivalSpeed="29.08" duration="58.70" routeLength="1053.93" waitingTime="0.00" waitingCount="0" stopTime="0.00" timeLoss="21.46" rerouteNo="1" devices="tripinfo_C3_1.6 routing_C3_1.6" vType="car" speedFactor="1.05" vaporized=""/>
    <tripinfo id="C3_1.7" depart="143.30" departLane="440471861#0_1" departPos="5.10" departPosLat="0.00" departSpeed="28.63" departDelay="0.00" arrival="187.30" arrivalLane="-140483224#1_1" arrivalPos="64.17" arrivalPosLat="-0.00" arrivalSpeed="28.60" duration="44.00" routeLength="1053.93" waitingTime="0.00" waitingCount="0" stopTime="0.00" timeLoss="6.13" rerouteNo="1" devices="tripinfo_C3_1.7 routing_C3_1.7" vType="car" speedFactor="1.03" vaporized=""/>
    <personinfo id="pf_2.18" depart="162.00" type="ped" speedFactor="0.92" duration="26.30" waitingTime="0.00" timeLoss="2.67" traveltime="26.30">
        <walk depart="162.00" departPos="15.72" arrival="188.30" arrivalPos="4.00" duration="26.30" routeLength="30.33" timeLoss="2.67" maxSpeed="1.28" waitingTime="0.00"/>
    </personinfo>
    <personinfo id="pf_2.19" depart="171.00" type="ped" speedFactor="1.03" duration="23.35" waitingTime="0.00" timeLoss="2.23" traveltime="23.35">
        <walk depart="171.00" departPos="15.72" arrival="194.35" arrivalPos="4.00" duration="23.35" routeLength="30.33" timeLoss="2.23" maxSpeed="1.44" waitingTime="0.00"/>
    </personinfo>
    <tripinfo id="C1_1.5" depart="113.70" departLane="440471861#0_1" departPos="2.30" departPosLat="0.00" departSpeed="29.17" departDelay="0.00" arrival="195.40" arrivalLane="-793339796#2_2" arrivalPos="83.13" arrivalPosLat="0.00" arrivalSpeed="29.06" duration="81.70" routeLength="1656.83" waitingTime="4.80" waitingCount="1" stopTime="0.00" timeLoss="23.79" rerouteNo="1" devices="tripinfo_C1_1.5 routing_C1_1.5" vType="motorcycle" speedFactor="1.05" vaporized=""/>
    <tripinfo id="C3_1.8" depart="151.85" departLane="440471861#0_1" departPos="5.10" departPosLat="0.00" departSpeed="28.87" departDelay="0.00" arrival="195.60" arrivalLane="-140483224#1_1" arrivalPos="64.17" arrivalPosLat="-0.00" arrivalSpeed="28.82" duration="43.75" routeLength="1053.93" waitingTime="0.00" waitingCount="0" stopTime="0.00" timeLoss="6.18" rerouteNo="1" devices="tripinfo_C3_1.8 routing_C3_1.8" vType="car" speedFactor="1.04" vaporized=""/>
    <tripinfo id="D3_1.1" depart="89.80" departLane="140483224#1_2" departPos="5.10" departPosLat="0.00" departSpeed="32.99" departDelay="0.00" arrival="203.95" arrivalLane="-440471861#0_2" arrivalPos="31.49" arrivalPosLat="0.00" arrivalSpeed="32.97" duration="114.15" routeLength="1069.09" waitingTime="70.00" waitingCount="1" stopTime="0.00" timeLoss="80.55" rerouteNo="1" devices="tripinfo_D3_1.1 routing_D3_1.1" vType="car" speedFactor="1.19" vaporized=""/>
    <personinfo id="pf_2.20" depart="180.00" type="ped" speedFactor="0.94" duration="25.80" waitingTime="0.00" timeLoss="2.61" traveltime="25.80">
        <walk depart="180.00" departPos="15.72" arrival="205.80" arrivalPos="4.00" duration="25.80" routeLength="30.33" timeLoss="2.61" maxSpeed="1.31" waitingTime="0.00"/>
    </personinfo>
    <tripinfo id="D3_1.2" depart="100.85" departLane="140483224#1_2" departPos="5.10" departPosLat="0.00" departSpeed="27.91" departDelay="0.00" arrival="207.65" arrivalLane="-440471861#0_2" arrivalPos="31.49" arrivalPosLat="0.00" arrivalSpeed="27.88" duration="106.80" routeLength="1069.09" waitingTime="56.85" waitingCount="1" stopTime="0.00" timeLoss="67.06" rerouteNo="1" devices="tripinfo_D3_1.2 routing_D3_1.2" vType="car" speedFactor="1.00" vaporized=""/>
    <tripinfo id="C1_1.4" depart="71.00" departLane="440471861#0_1" departPos="5.10" departPosLat="0.00" departSpeed="31.12" departDelay="0.00" arrival="208.40" arrivalLane="-793339796#2_1" arrivalPos="83.13" arrivalPosLat="0.00" arrivalSpeed="31.07" duration="137.40" routeLength="1654.03" waitingTime="42.30" waitingCount="1" stopTime="0.00" timeLoss="83.26" rerouteNo="1" devices="tripinfo_C1_1.4 routing_C1_1.4" vType="car" speedFactor="1.12" vaporized=""/>
    <tripinfo id="C1_1.0" depart="17.65" departLane="440471861#0_1" departPos="8.10" departPosLat="0.00" departSpeed="27.78" departDelay="0.00" arrival="208.75" arrivalLane="-793339796#2_2" arrivalPos="83.13" arrivalPosLat="0.00" arrivalSpeed="24.45" duration="191.10" routeLength="1651.03" waitingTime="95.60" waitingCount="1" stopTime="0.00" timeLoss="130.59" rerouteNo="1" devices="tripinfo_C1_1.0 routing_C1_1.0" vType="jeep" speedFactor="1.00" vaporized=""/>
    <personinfo id="pf_2.21" depart="189.00" type="ped" speedFactor="1.05" duration="22.90" waitingTime="0.00" timeLoss="2.17" traveltime="22.90">
        <walk depart="189.00" departPos="15.72" arrival="211.90" arrivalPos="4.00" duration="22.90" routeLength="30.33" timeLoss="2.17" maxSpeed="1.46" waitingTime="0.00"/>
    </personinfo>
    <tripinfo id="D3_1.3" depart="103.40" departLane="140483224#1_2" departPos="8.10" departPosLat="0.00" departSpeed="27.78" departDelay="0.00" arrival="215.35" arrivalLane="-440471861#0_2" arrivalPos="31.49" arrivalPosLat="0.00" arrivalSpeed="27.78" duration="111.95" routeLength="1066.09" waitingTime="50.25" waitingCount="1" stopTime="0.00" timeLoss="72.10" rerouteNo="1" devices="tripinfo_D3_1.3 routing_D3_1.3" vType="jeep" speedFactor="1.00" vaporized=""/>
    <tripinfo id="C1_1.2" depart="31.85" departLane="440471861#0_1" departPos="8.10" departPosLat="0.00" departSpeed="27.78" departDelay="0.00" arrival="215.55" arrivalLane="-793339796#2_1" arrivalPos="83.13" arrivalPosLat="-0.00" arrivalSpeed="24.40" duration="183.70" routeLength="1651.03" waitingTime="79.00" waitingCount="1" stopTime="0.00" timeLoss="123.18" rerouteNo="1" devices="tripinfo_C1_1.2 routing_C1_1.2" vType="jeep" speedFactor="1.00" vaporized=""/>
    <tripinfo id="D3_1.4" depart="107.10" departLane="140483224#1_2" departPos="5.10" departPosLat="0.00" departSpeed="23.74" departDelay="0.75" arrival="217.90" arrivalLane="-440471861#0_2" arrivalPos="31.49" arrivalPosLat="0.00" arrivalSpeed="23.68" duration="110.80" routeLength="1069.09" waitingTime="45.25" waitingCount="1" stopTime="0.00" timeLoss="64.06" rerouteNo="1" devices="tripinfo_D3_1.4 routing_D3_1.4" vType="car" speedFactor="0.85" vaporized=""/>
    <tripinfo id="C1_1.3" depart="41.05" departLane="440471861#0_1" departPos="7.20" departPosLat="0.00" departSpeed="27.14" departDelay="0.00" arrival="218.60" arrivalLane="-793339796#2_2" arrivalPos="83.13" arrivalPosLat="0.00" arrivalSpeed="25.42" duration="177.55" routeLength="1651.93" waitingTime="70.55" waitingCount="1" stopTime="0.00" timeLoss="115.51" rerouteNo="1" devices="tripinfo_C1_1.3 routing_C1_1.3" vType="truck" speedFactor="0.98" vaporized=""/>
    <tripinfo id="D3_1.5" depart="115.65" departLane="140483224#1_2" departPos="5.10" departPosLat="0.00" departSpeed="26.94" departDelay="0.00" arrival="219.10" arrivalLane="-440471861#0_2" arrivalPos="31.49" arrivalPosLat="0.00" arrivalSpeed="25.91" duration="103.45" routeLength="1069.09" waitingTime="39.45" waitingCount="1" stopTime="0.00" timeLoss="62.28" rerouteNo="1" devices="tripinfo_D3_1.5 routing_D3_1.5" vType="car" speedFactor="0.97" vaporized=""/>
    <tripinfo id="C1_1.6" depart="132.95" departLane="440471861#0_1" departPos="5.10" departPosLat="0.00" departSpeed="26.99" departDelay="0.00" arrival="219.80" arrivalLane="-793339796#2_2" arrivalPos="83.13" arrivalPosLat="0.00" arrivalSpeed="26.97" duration="86.85" routeLength="1654.03" waitingTime="0.00" waitingCount="0" stopTime="0.00" timeLoss="24.41" rerouteNo="1" devices="tripinfo_C1_1.6 routing_C1_1.6" vType="car" speedFactor="0.97" vaporized=""/>
    <tripinfo id="D3_1.6" depart="140.95" departLane="140483224#1_2" departPos="8.10" departPosLat="0.00" departSpeed="27.78" departDelay="0.00" arrival="221.05" arrivalLane="-440471861#0_2" arrivalPos="31.49" arrivalPosLat="-0.00" arrivalSpeed="27.76" duration="80.10" routeLength="1066.09" waitingTime="15.25" waitingCount="1" stopTime="0.00" timeLoss="40.30" rerouteNo="1" devices="tripinfo_D3_1.6 routing_D3_1.6" vType="jeep" speedFactor="1.00" vaporized=""/>
    <tripinfo id="B1_1.0" depart="37.80" departLane="-361257727#0_1" departPos="5.10" departPosLat="0.00" departSpeed="6.94" departDelay="0.00" arrival="221.60" arrivalLane="-793339796#2_1" arrivalPos="83.13" arrivalPosLat="-0.00" arrivalSpeed="23.11" duration="183.80" routeLength="1915.62" waitingTime="1.50" waitingCount="1" stopTime="0.00" timeLoss="22.00" rerouteNo="1" devices="tripinfo_B1_1.0 routing_B1_1.0" vType="car" speedFactor="0.83" vaporized=""/>
    <tripinfo id="C1_1.7" depart="147.20" departLane="440471861#0_1" departPos="5.10" departPosLat="0.00" departSpeed="29.86" departDelay="0.00" arrival="222.65" arrivalLane="-793339796#2_2" arrivalPos="83.13" arrivalPosLat="0.00" arrivalSpeed="29.80" duration="75.45" routeLength="1654.03" waitingTime="0.00" waitingCount="0" stopTime="0.00" timeLoss="18.98" rerouteNo="1" devices="tripinfo_C1_1.7 routing_C1_1.7" vType="car" speedFactor="1.07" vaporized=""/>
    <personinfo id="pf_2.22" depart="198.00" type="ped" speedFactor="0.97" duration="24.95" waitingTime="0.00" timeLoss="2.38" traveltime="24.95">
        <walk depart="198.00" departPos="15.72" arrival="222.95" arrivalPos="4.00" duration="24.95" routeLength="30.33" timeLoss="2.38" maxSpeed="1.34" waitingTime="0.00"/>
    </personinfo>
    <tripinfo id="C2_1.0" depart="20.15" departLane="440471861#0_2" departPos="5.10" departPosLat="0.00" departSpeed="25.00" departDelay="0.00" arrival="228.80" arrivalLane="-145894807#0_1" arrivalPos="260.97" arrivalPosLat="0.00" arrivalSpeed="7.48" duration="208.65" routeLength="1099.91" waitingTime="95.10" waitingCount="2" stopTime="0.00" timeLoss="111.65" rerouteNo="1" devices="tripinfo_C2_1.0 routing_C2_1.0" vType="car" speedFactor="0.90" vaporized=""/>
    <tripinfo id="C2_1.1" depart="27.30" departLane="440471861#0_2" departPos="2.30" departPosLat="0.00" departSpeed="29.87" departDelay="0.00" arrival="230.30" arrivalLane="-145894807#0_1" arrivalPos="260.97" arrivalPosLat="-1.20" arrivalSpeed="8.82" duration="203.00" routeLength="1102.71" waitingTime="93.20" waitingCount="3" stopTime="0.00" timeLoss="121.69" rerouteNo="1" devices="tripinfo_C2_1.1 routing_C2_1.1" vType="motorcycle" speedFactor="1.08" vaporized=""/>
    <tripinfo id="A1_1.1" depart="125.65" departLane="-793339796#2_1" departPos="2.30" departPosLat="0.00" departSpeed="27.19" departDelay="0.00" arrival="230.45" arrivalLane="-145894807#0_1" arrivalPos="260.97" arrivalPosLat="0.19" arrivalSpeed="8.14" duration="104.80" routeLength="1060.25" waitingTime="8.95" waitingCount="1" stopTime="0.00" timeLoss="13.21" rerouteNo="1" devices="tripinfo_A1_1.1 routing_A1_1.1" vType="motorcycle" speedFactor="0.98" vaporized=""/>
    <personinfo id="pf_2.23" depart="207.00" type="ped" speedFactor="1.01" duration="24.05" waitingTime="0.00" timeLoss="2.39" traveltime="24.05">
        <walk depart="207.00" departPos="15.72" arrival="231.05" arrivalPos="4.00" duration="24.05" routeLength="30.33" timeLoss="2.39" maxSpeed="1.40" waitingTime="0.00"/>
    </personinfo>
    <personinfo id="pf_2.24" depart="216.00" type="ped" speedFactor="1.01" duration="24.05" waitingTime="0.00" timeLoss="2.34" traveltime="24.05">
        <walk depart="216.00" departPos="15.72" arrival="240.05" arrivalPos="4.00" duration="24.05" routeLength="30.33" timeLoss="2.34" maxSpeed="1.40" waitingTime="0.00"/>
    </personinfo>
    <tripinfo id="A2_1.6" depart="130.95" departLane="-793339796#2_1" departPos="2.30" departPosLat="0.00" departSpeed="27.43" departDelay="0.00" arrival="245.45" arrivalLane="-440471861#0_1" arrivalPos="31.49" arrivalPosLat="0.00" arrivalSpeed="27.40" duration="114.50" routeLength="1084.69" waitingTime="69.25" waitingCount="1" stopTime="0.00" timeLoss="74.92" rerouteNo="1" devices="tripinfo_A2_1.6 routing_A2_1.6" vType="motorcycle" speedFactor="0.99" vaporized=""/>
    <tripinfo id="D1_1.1" depart="37.25" departLane="140483224#1_1" departPos="7.20" departPosLat="0.00" departSpeed="25.45" departDelay="0.00" arrival="251.15" arrivalLane="-793339796#2_2" arrivalPos="83.13" arrivalPosLat="0.00" arrivalSpeed="25.39" duration="213.90" routeLength="1646.35" waitingTime="118.75" waitingCount="1" stopTime="0.00" timeLoss="146.61" rerouteNo="1" devices="tripinfo_D1_1.1 routing_D1_1.1" vType="truck" speedFactor="0.92" vaporized=""/>