<?xml version="1.0" encoding="UTF-8"?>

<!-- generated on 2025-12-03 23:22:53 by Eclipse SUMO sumo Version 1.24.0
<sumoConfiguration xmlns:xsi="http://www.w3.org/2001/XMLSchema-instance" xsi:noNamespaceSchemaLocation="http://sumo.dlr.de/xsd/sumoConfiguration.xsd">

    <input>
        <net-file value="Olivarez_traci\network/map1.net.xml"/>
        <route-files value="Olivarez_traci\demand/flows_traffic_jam.rou.xml"/>
        <additional-files value="Olivarez_traci\additionals/map.poly.xml,Olivarez_traci\ additionals/detectors.add.xml"/>
    </input>

    <output>
        <tripinfo-output value="Olivarez_traci\output_DDPG\SD_DDPG_trips.xml"/>
        <statistic-output value="Olivarez_traci\output_DDPG\SD_DDPG_stats.xml"/>
    </output>

    <time>
        <begin value="0"/>
        <end value="10800"/>
        <step-length value="0.05"/>
    </time>

    <processing>
        <lateral-resolution value="0.1"/>
        <collision.action value="none"/>
        <collision.check-junctions value="false"/>
        <collision.mingap-factor value="0"/>
    </processing>

    <report>
        <no-warnings value="true"/>
    </report>

    <traci_server>
        <remote-port value="59056"/>
    </traci_server>

    <gui_only>
        <delay value="0"/>
    </gui_only>

</sumoConfiguration>
-->

<tripinfos xmlns:xsi="http://www.w3.org/2001/XMLSchema-instance" xsi:noNamespaceSchemaLocation="http://sumo.dlr.de/xsd/tripinfo_file.xsd">
    <personinfo id="pf_2.0" depart="0.00" type="ped" speedFactor="0.83" duration="29.80" waitingTime="0.00" timeLoss="3.01" traveltime="29.80">
        <walk depart="0.00" departPos="15.09" arrival="29.80" arrivalPos="3.44" duration="29.80" routeLength="30.72" timeLoss="3.01" maxSpeed="1.15" waitingTime="0.00"/>
    </personinfo>
    <personinfo id="pf_2.1" depart="15.00" type="ped" speedFactor="0.87" duration="28.10" waitingTime="0.00" timeLoss="2.75" traveltime="28.10">
        <walk depart="15.00" departPos="15.09" arrival="43.10" arrivalPos="3.44" duration="28.10" routeLength="30.72" timeLoss="2.75" maxSpeed="1.21" waitingTime="0.00"/>
    </personinfo>
    <tripinfo id="D3_1.0" depart="7.65" departLane="140483224#1_2" departPos="5.10" departPosLat="0.00" departSpeed="27.02" departDelay="0.00" arrival="52.70" arrivalLane="-440471861#0_2" arrivalPos="31.52" arrivalPosLat="0.00" arrivalSpeed="27.01" duration="45.05" routeLength="1067.97" waitingTime="0.00" waitingCount="0" stopTime="0.00" timeLoss="3.93" rerouteNo="1" devices="tripinfo_D3_1.0 routing_D3_1.0" vType="car" speedFactor="0.97" vaporized=""/>
    <tripinfo id="A2_1.1" depart="8.20" departLane="-793339796#2_1" departPos="2.30" departPosLat="0.00" departSpeed="29.35" departDelay="0.00" arrival="58.20" arrivalLane="-440471861#0_2" arrivalPos="31.52" arrivalPosLat="0.00" arrivalSpeed="29.30" duration="50.00" routeLength="1084.07" waitingTime="7.30" waitingCount="1" stopTime="0.00" timeLoss="13.03" rerouteNo="1" devices="tripinfo_A2_1.1 routing_A2_1.1" vType="motorcycle" speedFactor="1.06" vaporized=""/>
    <tripinfo id="A2_1.0" depart="4.45" departLane="-793339796#2_1" departPos="5.10" departPosLat="0.00" departSpeed="29.34" departDelay="0.00" arrival="62.60" arrivalLane="-440471861#0_1" arrivalPos="31.52" arrivalPosLat="-0.00" arrivalSpeed="29.32" duration="58.15" routeLength="1081.27" waitingTime="10.55" waitingCount="1" stopTime="0.00" timeLoss="21.27" rerouteNo="1" devices="tripinfo_A2_1.0 routing_A2_1.0" vType="car" speedFactor="1.06" vaporized=""/>
    <tripinfo id="A2_1.2" depart="20.70" departLane="-793339796#2_1" departPos="2.30" departPosLat="0.00" departSpeed="26.42" departDelay="0.00" arrival="65.35" arrivalLane="-440471861#0_1" arrivalPos="31.52" arrivalPosLat="0.00" arrivalSpeed="26.39" duration="44.65" routeLength="1084.07" waitingTime="0.00" waitingCount="0" stopTime="0.00" timeLoss="3.60" rerouteNo="1" devices="tripinfo_A2_1.2 routing_A2_1.2" vType="tricycle" speedFactor="0.95" vaporized=""/>
    <tripinfo id="A2_1.3" depart="29.20" departLane="-793339796#2_1" departPos="7.20" departPosLat="0.00" departSpeed="27.71" departDelay="2.15" arrival="71.10" arrivalLane="-440471861#0_1" arrivalPos="31.52" arrivalPosLat="0.00" arrivalSpeed="27.69" duration="41.90" routeLength="1079.17" waitingTime="0.00" waitingCount="0" stopTime="0.00" timeLoss="2.91" rerouteNo="1" devices="tripinfo_A2_1.3 routing_A2_1.3" vType="truck" speedFactor="1.00" vaporized=""/>
    <tripinfo id="D1_1.0" depart="0.60" departLane="140483224#1_1" departPos="5.10" departPosLat="0.00" departSpeed="24.93" departDelay="0.00" arrival="98.10" arrivalLane="-793339796#2_2" arrivalPos="82.50" arrivalPosLat="0.00" arrivalSpeed="24.87" duration="97.50" routeLength="1648.38" waitingTime="5.65" waitingCount="1" stopTime="0.00" timeLoss="28.75" rerouteNo="1" devices="tripinfo_D1_1.0 routing_D1_1.0" vType="car" speedFactor="0.90" vaporized=""/>
    <tripinfo id="A2_1.4" depart="62.90" departLane="-793339796#2_1" departPos="5.10" departPosLat="0.00" departSpeed="27.21" departDelay="0.00" arrival="104.35" arrivalLane="-440471861#0_1" arrivalPos="31.52" arrivalPosLat="0.00" arrivalSpeed="27.17" duration="41.45" routeLength="1081.27" waitingTime="0.00" waitingCount="0" stopTime="0.00" timeLoss="1.70" rerouteNo="1" devices="tripinfo_A2_1.4 routing_A2_1.4" vType="car" speedFactor="0.98" vaporized=""/>
    <personinfo id="pf_4.0" depart="0.00" type="ped" speedFactor="1.11" duration="106.85" waitingTime="0.00" timeLoss="10.65" traveltime="106.85">
        <walk depart="0.00" departPos="25.00" arrival="51.95" arrivalPos="29.11" duration="51.95" routeLength="72.15" timeLoss="5.16" maxSpeed="1.54" waitingTime="0.00"/>
        <walk depart="51.95" departPos="29.11" arrival="106.85" arrivalPos="29.05" duration="54.90" routeLength="76.20" timeLoss="5.49" maxSpeed="1.54" waitingTime="0.00"/>
    </personinfo>
    <tripinfo id="A2_1.5" depart="64.95" departLane="-793339796#2_1" departPos="7.20" departPosLat="0.00" departSpeed="24.90" departDelay="0.00" arrival="110.40" arrivalLane="-440471861#0_1" arrivalPos="31.52" arrivalPosLat="0.00" arrivalSpeed="24.87" duration="45.45" routeLength="1079.17" waitingTime="0.00" waitingCount="0" stopTime="0.00" timeLoss="2.08" rerouteNo="1" devices="tripinfo_A2_1.5 routing_A2_1.5" vType="truck" speedFactor="0.90" vaporized=""/>
    <tripinfo id="A3_1.0" depart="15.50" departLane="-793339796#2_2" departPos="5.10" departPosLat="0.00" departSpeed="27.37" departDelay="0.00" arrival="125.35" arrivalLane="-140483224#1_2" arrivalPos="64.04" arrivalPosLat="0.00" arrivalSpeed="27.34" duration="109.85" routeLength="1080.94" waitingTime="49.35" waitingCount="2" stopTime="0.00" timeLoss="68.81" rerouteNo="1" devices="tripinfo_A3_1.0 routing_A3_1.0" vType="car" speedFactor="0.99" vaporized=""/>
    <personinfo id="pf_4.1" depart="15.00" type="ped" speedFactor="1.02" duration="116.35" waitingTime="0.00" timeLoss="11.16" traveltime="116.35">
        <walk depart="15.00" departPos="25.00" arrival="71.55" arrivalPos="29.11" duration="56.55" routeLength="72.15" timeLoss="5.39" maxSpeed="1.41" waitingTime="0.00"/>
        <walk depart="71.55" departPos="29.11" arrival="131.35" arrivalPos="29.05" duration="59.80" routeLength="76.20" timeLoss="5.77" maxSpeed="1.41" waitingTime="0.00"/>
    </personinfo>
    <tripinfo id="A3_1.2" depart="63.55" departLane="-793339796#2_2" departPos="7.20" departPosLat="0.00" departSpeed="28.29" departDelay="0.00" arrival="132.25" arrivalLane="-140483224#1_2" arrivalPos="64.04" arrivalPosLat="0.00" arrivalSpeed="28.26" duration="68.70" routeLength="1078.84" waitingTime="4.35" waitingCount="1" stopTime="0.00" timeLoss="29.09" rerouteNo="1" devices="tripinfo_A3_1.2 routing_A3_1.2" vType="truck" speedFactor="1.02" vaporized=""/>
    <tripinfo id="A3_1.1" depart="30.50" departLane="-793339796#2_2" departPos="12.10" departPosLat="0.00" departSpeed="27.78" departDelay="0.00" arrival="132.60" arrivalLane="-140483224#1_1" arrivalPos="64.04" arrivalPosLat="-0.00" arrivalSpeed="27.75" duration="102.10" routeLength="1073.94" waitingTime="31.20" waitingCount="2" stopTime="0.00" timeLoss="61.90" rerouteNo="1" devices="tripinfo_A3_1.1 routing_A3_1.1" vType="bus" speedFactor="1.00" vaporized=""/>
    <tripinfo id="B2_1.0" depart="6.95" departLane="-361257727#0_1" departPos="5.10" departPosLat="0.00" departSpeed="8.38" departDelay="0.00" arrival="145.85" arrivalLane="-440471861#0_1" arrivalPos="31.52" arrivalPosLat="0.00" arrivalSpeed="27.93" duration="138.90" routeLength="1397.68" waitingTime="12.95" waitingCount="1" stopTime="0.00" timeLoss="22.59" rerouteNo="1" devices="tripinfo_B2_1.0 routing_B2_1.0" vType="car" speedFactor="1.01" vaporized=""/>
    <tripinfo id="B2_1.1" depart="31.00" departLane="-361257727#0_1" departPos="2.30" departPosLat="0.00" departSpeed="9.48" departDelay="0.00" arrival="147.35" arrivalLane="-440471861#0_1" arrivalPos="31.52" arrivalPosLat="-0.00" arrivalSpeed="31.61" duration="116.35" routeLength="1400.48" waitingTime="0.00" waitingCount="0" stopTime="0.00" timeLoss="13.24" rerouteNo="1" devices="tripinfo_B2_1.1 routing_B2_1.1" vType="tricycle" speedFactor="1.14" vaporized=""/>
    <personinfo id="pf_4.2" depart="30.00" type="ped" speedFactor="1.01" duration="117.50" waitingTime="0.00" timeLoss="11.82" traveltime="117.50">
        <walk depart="30.00" departPos="25.00" arrival="87.20" arrivalPos="29.11" duration="57.20" routeLength="72.15" timeLoss="5.80" maxSpeed="1.40" waitingTime="0.00"/>
        <walk depart="87.20" departPos="29.11" arrival="147.50" arrivalPos="29.05" duration="60.30" routeLength="76.20" timeLoss="6.02" maxSpeed="1.40" waitingTime="0.00"/>
    </personinfo>
    <personinfo id="pf_4.4" depart="60.00" type="ped" speedFactor="1.05" duration="116.45" waitingTime="3.05" timeLoss="14.38" traveltime="116.45">
        <walk depart="60.00" departPos="25.00" arrival="118.25" arrivalPos="29.11" duration="58.25" routeLength="72.15" timeLoss="8.61" maxSpeed="1.45" waitingTime="3.05"/>
        <walk depart="118.25" departPos="29.11" arrival="176.45" arrivalPos="29.05" duration="58.20" routeLength="76.20" timeLoss="5.77" maxSpeed="1.45" waitingTime="0.00"/>
    </personinfo>
    <personinfo id="pf_4.5" depart="75.00" type="ped" speedFactor="1.12" duration="105.45" waitingTime="0.00" timeLoss="10.46" traveltime="105.45">
        <walk depart="75.00" departPos="25.00" arrival="126.15" arrivalPos="29.11" duration="51.15" routeLength="72.15" timeLoss="4.95" maxSpeed="1.56" waitingTime="0.00"/>
        <walk depart="126.15" departPos="29.11" arrival="180.45" arrivalPos="29.05" duration="54.30" routeLength="76.20" timeLoss="5.51" maxSpeed="1.56" waitingTime="0.00"/>
    </personinfo>
    <tripinfo id="A1_1.0" depart="78.95" departLane="-793339796#2_1" departPos="2.30" departPosLat="0.00" departSpeed="26.46" departDelay="0.00" arrival="183.90" arrivalLane="-145894807#0_1" arrivalPos="260.95" arrivalPosLat="0.00" arrivalSpeed="7.89" duration="104.95" routeLength="1094.97" waitingTime="2.95" waitingCount="2" stopTime="0.00" timeLoss="14.03" rerouteNo="1" devices="tripinfo_A1_1.0 routing_A1_1.0" vType="tricycle" speedFactor="0.95" vaporized=""/>
    <tripinfo id="B1_1.0" depart="37.80" departLane="-361257727#0_1" departPos="5.10" departPosLat="0.00" departSpeed="7.39" departDelay="0.00" arrival="202.10" arrivalLane="-793339796#2_2" arrivalPos="82.50" arrivalPosLat="0.00" arrivalSpeed="24.65" duration="164.30" routeLength="1915.44" waitingTime="0.00" waitingCount="0" stopTime="0.00" timeLoss="12.56" rerouteNo="1" devices="tripinfo_B1_1.0 routing_B1_1.0" vType="car" speedFactor="0.89" vaporized=""/>
    <personinfo id="pf_4.6" depart="90.00" type="ped" speedFactor="1.01" duration="117.75" waitingTime="0.00" timeLoss="11.53" traveltime="117.75">
        <walk depart="90.00" departPos="25.00" arrival="147.35" arrivalPos="29.11" duration="57.35" routeLength="72.15" timeLoss="5.69" maxSpeed="1.40" waitingTime="0.00"/>
        <walk depart="147.35" departPos="29.11" arrival="207.75" arrivalPos="29.05" duration="60.40" routeLength="76.20" timeLoss="5.84" maxSpeed="1.40" waitingTime="0.00"/>
    </personinfo>
    <personinfo id="pf_4.3" depart="45.00" type="ped" speedFactor="0.69" duration="174.05" waitingTime="2.25" timeLoss="19.34" traveltime="174.05">
        <walk depart="45.00" departPos="25.00" arrival="128.50" arrivalPos="29.11" duration="83.50" routeLength="72.15" timeLoss="8.26" maxSpeed="0.96" waitingTime="0.00"/>
        <walk depart="128.50" departPos="29.11" arrival="219.05" arrivalPos="29.05" duration="90.55" routeLength="76.20" timeLoss="11.08" maxSpeed="0.96" waitingTime="2.25"/>
    </personinfo>
    <personinfo id="pf_4.7" depart="105.00" type="ped" speedFactor="1.01" duration="121.25" waitingTime="3.65" timeLoss="15.22" traveltime="121.25">
        <walk depart="105.00" departPos="25.00" arrival="162.30" arrivalPos="29.11" duration="57.30" routeLength="72.15" timeLoss="5.73" maxSpeed="1.40" waitingTime="0.00"/>
        <walk depart="162.30" departPos="29.11" arrival="226.25" arrivalPos="29.05" duration="63.95" routeLength="76.20" timeLoss="9.49" maxSpeed="1.40" waitingTime="3.65"/>
    </personinfo>
    <personinfo id="pf_4.8" depart="120.00" type="ped" speedFactor="1.09" duration="109.15" waitingTime="0.80" timeLoss="11.46" traveltime="109.15">
        <walk depart="120.00" departPos="25.00" arrival="173.45" arrivalPos="29.11" duration="53.45" routeLength="72.15" timeLoss="5.94" maxSpeed="1.52" waitingTime="0.80"/>
        <walk depart="173.45" departPos="29.11" arrival="229.15" arrivalPos="29.05" duration="55.70" routeLength="76.20" timeLoss="5.52" maxSpeed="1.52" waitingTime="0.00"/>
    </personinfo>
    <tripinfo id="A1_1.1" depart="137.10" departLane="-793339796#2_1" departPos="8.10" departPosLat="0.00" departSpeed="27.78" departDelay="11.45" arrival="230.90" arrivalLane="-145894807#0_1" arrivalPos="260.95" arrivalPosLat="0.00" arrivalSpeed="8.30" duration="93.80" routeLength="1053.72" waitingTime="0.00" waitingCount="0" stopTime="0.00" timeLoss="4.35" rerouteNo="1" devices="tripinfo_A1_1.1 routing_A1_1.1" vType="jeep" speedFactor="1.00" vaporized=""/>
    <tripinfo id="C2_1.0" depart="20.15" departLane="440471861#0_2" departPos="8.10" departPosLat="0.00" departSpeed="27.78" departDelay="0.00" arrival="241.90" arrivalLane="-145894807#0_1" arrivalPos="260.95" arrivalPosLat="-0.00" arrivalSpeed="8.32" duration="221.75" routeLength="1079.06" waitingTime="126.20" waitingCount="1" stopTime="0.00" timeLoss="136.59" rerouteNo="1" devices="tripinfo_C2_1.0 routing_C2_1.0" vType="jeep" speedFactor="1.00" vaporized=""/>
    <tripinfo id="C2_1.1" depart="27.30" departLane="440471861#0_2" departPos="2.30" departPosLat="0.00" departSpeed="28.06" departDelay="0.00" arrival="244.15" arrivalLane="-145894807#0_1" arrivalPos="260.95" arrivalPosLat="0.00" arrivalSpeed="8.38" duration="216.85" routeLength="1084.86" waitingTime="117.85" waitingCount="1" stopTime="0.00" timeLoss="132.33" rerouteNo="1" devices="tripinfo_C2_1.1 routing_C2_1.1" vType="tricycle" speedFactor="1.01" vaporized=""/>
    <personinfo id="pf_4.9" depart="135.00" type="ped" speedFactor="1.07" duration="110.80" waitingTime="0.35" timeLoss="11.32" traveltime="110.80">
        <walk depart="135.00" departPos="25.00" arrival="188.55" arrivalPos="29.11" duration="53.55" routeLength="72.15" timeLoss="5.17" maxSpeed="1.49" waitingTime="0.00"/>
        <walk depart="188.55" departPos="29.11" arrival="245.80" arrivalPos="29.05" duration="57.25" routeLength="76.20" timeLoss="6.15" maxSpeed="1.49" waitingTime="0.35"/>
    </personinfo>
    <personinfo id="pf_4.10" depart="150.00" type="ped" speedFactor="1.08" duration="109.95" waitingTime="0.00" timeLoss="10.98" traveltime="109.95">
        <walk depart="150.00" departPos="25.00" arrival="203.55" arrivalPos="29.11" duration="53.55" routeLength="72.15" timeLoss="5.42" maxSpeed="1.50" waitingTime="0.00"/>
        <walk depart="203.55" departPos="29.11" arrival="259.95" arrivalPos="29.05" duration="56.40" routeLength="76.20" timeLoss="5.56" maxSpeed="1.50" waitingTime="0.00"/>
    </personinfo>
    <tripinfo id="C3_1.0" depart="11.40" departLane="440471861#0_1" departPos="12.10" departPosLat="0.00" departSpeed="27.78" departDelay="0.00" arrival="262.65" arrivalLane="-140483224#1_2" arrivalPos="64.04" arrivalPosLat="0.00" arrivalSpeed="27.75" duration="251.25" routeLength="1045.78" waitingTime="186.10" waitingCount="2" stopTime="0.00" timeLoss="212.26" rerouteNo="1" devices="tripinfo_C3_1.0 routing_C3_1.0" vType="bus" speedFactor="1.00" vaporized=""/>
    <tripinfo id="C3_1.2" depart="43.55" departLane="440471861#0_1" departPos="5.10" departPosLat="0.00" departSpeed="27.08" departDelay="0.00" arrival="264.05" arrivalLane="-140483224#1_2" arrivalPos="64.04" arrivalPosLat="0.00" arrivalSpeed="30.01" duration="220.50" routeLength="1052.78" waitingTime="148.20" waitingCount="2" stopTime="0.00" timeLoss="186.18" rerouteNo="1" devices="tripinfo_C3_1.2 routing_C3_1.2" vType="car" speedFactor="1.14" vaporized=""/>
    <tripinfo id="C3_1.1" depart="23.60" departLane="440471861#0_1" departPos="7.20" departPosLat="0.00" departSpeed="26.64" departDelay="0.00" arrival="264.50" arrivalLane="-140483224#1_1" arrivalPos="64.04" arrivalPosLat="0.00" arrivalSpeed="26.63" duration="240.90" routeLength="1050.68" waitingTime="168.90" waitingCount="2" stopTime="0.00" timeLoss="200.05" rerouteNo="1" devices="tripinfo_C3_1.1 routing_C3_1.1" vType="truck" speedFactor="0.96" vaporized=""/>
    <tripinfo id="C3_1.3" depart="54.65" departLane="440471861#0_1" departPos="5.10" departPosLat="0.00" departSpeed="29.67" departDelay="0.00" arrival="265.10" arrivalLane="-140483224#1_2" arrivalPos="64.04" arrivalPosLat="0.00" arrivalSpeed="29.67" duration="210.45" routeLength="1052.78" waitingTime="135.60" waitingCount="3" stopTime="0.00" timeLoss="173.72" rerouteNo="1" devices="tripinfo_C3_1.3 routing_C3_1.3" vType="car" speedFactor="1.07" vaporized=""/>
    <tripinfo id="D3_1.1" depart="89.80" departLane="140483224#1_2" departPos="5.10" departPosLat="0.00" departSpeed="25.66" departDelay="0.00" arrival="265.55" arrivalLane="-440471861#0_2" arrivalPos="31.52" arrivalPosLat="0.00" arrivalSpeed="25.62" duration="175.75" routeLength="1067.97" waitingTime="124.60" waitingCount="1" stopTime="0.00" timeLoss="132.49" rerouteNo="1" devices="tripinfo_D3_1.1 routing_D3_1.1" vType="car" speedFactor="0.92" vaporized=""/>
    <tripinfo id="C3_1.4" depart="78.25" departLane="440471861#0_1" departPos="5.10" departPosLat="0.00" departSpeed="23.65" departDelay="0.00" arrival="266.55" arrivalLane="-140483224#1_1" arrivalPos="64.04" arrivalPosLat="-0.00" arrivalSpeed="23.63" duration="188.30" routeLength="1052.78" waitingTime="109.35" waitingCount="3" stopTime="0.00" timeLoss="142.19" rerouteNo="1" devices="tripinfo_C3_1.4 routing_C3_1.4" vType="car" speedFactor="0.85" vaporized=""/>
    <tripinfo id="D3_1.2" depart="100.85" departLane="140483224#1_2" departPos="5.10" departPosLat="0.00" departSpeed="27.97" departDelay="0.00" arrival="266.80" arrivalLane="-440471861#0_2" arrivalPos="31.52" arrivalPosLat="0.00" arrivalSpeed="27.96" duration="165.95" routeLength="1067.97" waitingTime="115.25" waitingCount="1" stopTime="0.00" timeLoss="126.24" rerouteNo="1" devices="tripinfo_D3_1.2 routing_D3_1.2" vType="car" speedFactor="1.01" vaporized=""/>
    <tripinfo id="D3_1.3" depart="103.40" departLane="140483224#1_1" departPos="2.30" departPosLat="0.00" departSpeed="28.96" departDelay="0.00" arrival="268.10" arrivalLane="-440471861#0_2" arrivalPos="31.52" arrivalPosLat="0.00" arrivalSpeed="28.92" duration="164.70" routeLength="1070.77" waitingTime="109.15" waitingCount="2" stopTime="0.00" timeLoss="126.20" rerouteNo="1" devices="tripinfo_D3_1.3 routing_D3_1.3" vType="tricycle" speedFactor="1.04" vaporized=""/>
    <tripinfo id="D3_1.4" depart="106.35" departLane="140483224#1_1" departPos="12.10" departPosLat="0.00" departSpeed="26.29" departDelay="0.00" arrival="275.15" arrivalLane="-440471861#0_2" arrivalPos="31.52" arrivalPosLat="0.00" arrivalSpeed="27.77" duration="168.80" routeLength="1060.97" waitingTime="108.80" waitingCount="1" stopTime="0.00" timeLoss="129.04" rerouteNo="1" devices="tripinfo_D3_1.4 routing_D3_1.4" vType="bus" speedFactor="1.00" vaporized=""/>
    <tripinfo id="A1_1.2" depart="182.65" departLane="-793339796#2_1" departPos="8.10" departPosLat="0.00" departSpeed="27.78" departDelay="28.05" arrival="276.40" arrivalLane="-145894807#0_1" arrivalPos="260.95" arrivalPosLat="0.00" arrivalSpeed="8.33" duration="93.75" routeLength="1053.72" waitingTime="0.00" waitingCount="0" stopTime="0.00" timeLoss="4.33" rerouteNo="1" devices="tripinfo_A1_1.2 routing_A1_1.2" vType="jeep" speedFactor="1.00" vaporized=""/>
    <tripinfo id="D3_1.5" depart="115.65" departLane="140483224#1_2" departPos="5.10" departPosLat="0.00" departSpeed="24.06" departDelay="0.00" arrival="277.75" arrivalLane="-440471861#0_2" arrivalPos="31.52" arrivalPosLat="0.00" arrivalSpeed="24.03" duration="162.10" routeLength="1067.97" waitingTime="96.95" waitingCount="1" stopTime="0.00" timeLoss="115.91" rerouteNo="1" devices="tripinfo_D3_1.5 routing_D3_1.5" vType="car" speedFactor="0.87" vaporized=""/>
    <tripinfo id="D3_1.6" depart="140.95" departLane="140483224#1_1" departPos="2.30" departPosLat="0.00" departSpeed="26.43" departDelay="0.00" arrival="279.00" arrivalLane="-440471861#0_2" arrivalPos="31.52" arrivalPosLat="0.00" arrivalSpeed="25.82" duration="138.05" routeLength="1070.77" waitingTime="79.80" waitingCount="1" stopTime="0.00" timeLoss="95.91" rerouteNo="1" devices="tripinfo_D3_1.6 routing_D3_1.6" vType="tricycle" speedFactor="0.95" vaporized=""/>
    <tripinfo id="D3_1.7" depart="208.30" departLane="140483224#1_2" departPos="5.10" departPosLat="0.00" departSpeed="28.89" departDelay="0.00" arrival="281.35" arrivalLane="-440471861#0_2" arrivalPos="31.52" arrivalPosLat="0.00" arrivalSpeed="28.83" duration="73.05" routeLength="1067.97" waitingTime="10.45" waitingCount="2" stopTime="0.00" timeLoss="34.62" rerouteNo="1" devices="tripinfo_D3_1.7 routing_D3_1.7" vType="car" speedFactor="1.04" vaporized=""/>
    <tripinfo id="D3_1.8" depart="241.40" departLane="140483224#1_2" departPos="5.10" departPosLat="0.00" departSpeed="26.26" departDelay="0.00" arrival="287.50" arrivalLane="-440471861#0_2" arrivalPos="31.52" arrivalPosLat="0.00" arrivalSpeed="26.24" duration="46.10" routeLength="1067.97" waitingTime="0.00" waitingCount="0" stopTime="0.00" timeLoss="3.78" rerouteNo="1" devices="tripinfo_D3_1.8 routing_D3_1.8" vType="car" speedFactor="0.95" vaporized=""/>
    <tripinfo id="C1_1.0" depart="17.65" departLane="440471861#0_1" departPos="2.30" departPosLat="0.00" departSpeed="28.93" departDelay="0.00" arrival="298.10" arrivalLane="-793339796#2_2" arrivalPos="82.50" arrivalPosLat="0.00" arrivalSpeed="28.88" duration="280.45" routeLength="1656.79" waitingTime="196.40" waitingCount="3" stopTime="0.00" timeLoss="222.16" rerouteNo="1" devices="tripinfo_C1_1.0 routing_C1_1.0" vType="motorcycle" speedFactor="1.04" vaporized=""/>
    <tripinfo id="C1_1.8" depart="163.05" departLane="440471861#0_1" departPos="2.30" departPosLat="0.00" departSpeed="27.78" departDelay="0.00" arrival="298.40" arrivalLane="-793339796#2_2" arrivalPos="82.50" arrivalPosLat="-1.19" arrivalSpeed="30.30" duration="135.35" routeLength="1656.79" waitingTime="64.55" waitingCount="1" stopTime="0.00" timeLoss="79.86" rerouteNo="1" devices="tripinfo_C1_1.8 routing_C1_1.8" vType="motorcycle" speedFactor="1.09" vaporized=""/>
    <tripinfo id="D3_1.9" depart="248.25" departLane="140483224#1_1" departPos="7.20" departPosLat="0.00" departSpeed="24.69" departDelay="0.00" arrival="299.80" arrivalLane="-440471861#0_2" arrivalPos="31.52" arrivalPosLat="0.00" arrivalSpeed="24.68" duration="51.55" routeLength="1065.87" waitingTime="0.00" waitingCount="0" stopTime="0.00" timeLoss="6.64" rerouteNo="1" devices="tripinfo_D3_1.9 routing_D3_1.9" vType="truck" speedFactor="0.89" vaporized=""/>
    <personinfo id="pf_4.11" depart="165.00" type="ped" speedFactor="0.91" duration="135.80" waitingTime="5.80" timeLoss="18.84" traveltime="135.80">
        <walk depart="165.00" departPos="25.00" arrival="230.10" arrivalPos="29.11" duration="65.10" routeLength="72.15" timeLoss="8.22" maxSpeed="1.27" waitingTime="2.00"/>
        <walk depart="230.10" departPos="29.11" arrival="300.80" arrivalPos="29.05" duration="70.70" routeLength="76.20" timeLoss="10.62" maxSpeed="1.27" waitingTime="3.80"/>
    </personinfo>
    <tripinfo id="C1_1.3" depart="41.05" departLane="440471861#0_1" departPos="2.30" departPosLat="0.00" departSpeed="29.34" departDelay="0.00" arrival="301.50" arrivalLane="-793339796#2_2" arrivalPos="82.50" arrivalPosLat="0.00" arrivalSpeed="29.24" duration="260.45" routeLength="1656.79" waitingTime="175.75" waitingCount="2" stopTime="0.00" timeLoss="202.92" rerouteNo="1" devices="tripinfo_C1_1.3 routing_C1_1.3" vType="motorcycle" speedFactor="1.06" vaporized=""/>
    <tripinfo id="C1_1.7" depart="147.20" departLane="440471861#0_1" departPos="2.30" departPosLat="0.00" departSpeed="31.15" departDelay="0.00" arrival="301.70" arrivalLane="-793339796#2_2" arrivalPos="82.50" arrivalPosLat="-1.39" arrivalSpeed="31.14" duration="154.50" routeLength="1656.79" waitingTime="68.40" waitingCount="1" stopTime="0.00" timeLoss="100.31" rerouteNo="1" devices="tripinfo_C1_1.7 routing_C1_1.7" vType="motorcycle" speedFactor="1.12" vaporized=""/>
    <tripinfo id="C1_1.1" depart="28.55" departLane="440471861#0_1" departPos="5.10" departPosLat="0.00" departSpeed="26.25" departDelay="0.00" arrival="310.95" arrivalLane="-793339796#2_2" arrivalPos="82.50" arrivalPosLat="0.00" arrivalSpeed="26.23" duration="282.40" routeLength="1653.99" waitingTime="183.35" waitingCount="2" stopTime="0.00" timeLoss="218.20" rerouteNo="1" devices="tripinfo_C1_1.1 routing_C1_1.1" vType="car" speedFactor="0.94" vaporized=""/>
    <tripinfo id="D2_1.0" depart="33.65" departLane="140483224#1_1" departPos="5.10" departPosLat="0.00" departSpeed="26.65" departDelay="0.00" arrival="310.95" arrivalLane="-145894807#0_1" arrivalPos="260.95" arrivalPosLat="0.00" arrivalSpeed="7.93" duration="277.30" routeLength="1092.76" waitingTime="175.85" waitingCount="2" stopTime="0.00" timeLoss="188.37" rerouteNo="1" devices="tripinfo_D2_1.0 routing_D2_1.0" vType="car" speedFactor="0.96" vaporized=""/>
    <tripinfo id="D1_1.1" depart="37.25" departLane="140483224#1_1" departPos="5.10" departPosLat="0.00" departSpeed="28.29" departDelay="0.00" arrival="313.55" arrivalLane="-793339796#2_2" arrivalPos="82.50" arrivalPosLat="0.00" arrivalSpeed="28.24" duration="276.30" routeLength="1648.38" waitingTime="169.05" waitingCount="3" stopTime="0.00" timeLoss="215.69" rerouteNo="1" devices="tripinfo_D1_1.1 routing_D1_1.1" vType="car" speedFactor="1.02" vaporized=""/>
    <tripinfo id="D1_1.2" depart="46.15" departLane="140483224#1_1" departPos="5.10" departPosLat="0.00" departSpeed="27.03" departDelay="0.00" arrival="317.10" arrivalLane="-793339796#2_2" arrivalPos="82.50" arrivalPosLat="0.00" arrivalSpeed="26.96" duration="270.95" routeLength="1648.38" waitingTime="160.75" waitingCount="4" stopTime="0.00" timeLoss="207.50" rerouteNo="1" devices="tripinfo_D1_1.2 routing_D1_1.2" vType="car" speedFactor="0.97" vaporized=""/>
    <tripinfo id="D3_1.10" depart="274.40" departLane="140483224#1_2" departPos="5.10" departPosLat="0.00" departSpeed="27.69" departDelay="0.00" arrival="319.25" arrivalLane="-440471861#0_2" arrivalPos="31.52" arrivalPosLat="0.00" arrivalSpeed="27.63" duration="44.85" routeLength="1067.97" waitingTime="0.00" waitingCount="0" stopTime="0.00" timeLoss="4.76" rerouteNo="1" devices="tripinfo_D3_1.10 routing_D3_1.10" vType="car" speedFactor="1.00" vaporized=""/>
    <tripinfo id="D1_1.3" depart="58.55" departLane="140483224#1_1" departPos="5.10" departPosLat="0.00" departSpeed="27.81" departDelay="0.00" arrival="319.90" arrivalLane="-793339796#2_2" arrivalPos="82.50" arrivalPosLat="0.00" arrivalSpeed="27.78" duration="261.35" routeLength="1648.38" waitingTime="150.65" waitingCount="8" stopTime="0.00" timeLoss="199.70" rerouteNo="1" devices="tripinfo_D1_1.3 routing_D1_1.3" vType="car" speedFactor="1.00" vaporized=""/>
    <tripinfo id="A1_1.3" depart="222.65" departLane="-793339796#2_1" departPos="2.30" departPosLat="0.00" departSpeed="25.98" departDelay="0.00" arrival="320.95" arrivalLane="-145894807#0_1" arrivalPos="260.95" arrivalPosLat="0.00" arrivalSpeed="7.75" duration="98.30" routeLength="1059.52" waitingTime="0.00" waitingCount="0" stopTime="0.00" timeLoss="2.44" rerouteNo="1" devices="tripinfo_A1_1.3 routing_A1_1.3" vType="motorcycle" speedFactor="0.94" vaporized=""/>
    <tripinfo id="D1_1.4" depart="106.95" departLane="140483224#1_1" departPos="5.10" departPosLat="0.00" departSpeed="23.70" departDelay="0.00" arrival="322.80" arrivalLane="-793339796#2_2" arrivalPos="82.50" arrivalPosLat="0.00" arrivalSpeed="27.90" duration="215.85" routeLength="1648.38" waitingTime="109.80" waitingCount="1" stopTime="0.00" timeLoss="154.48" rerouteNo="1" devices="tripinfo_D1_1.4 routing_D1_1.4" vType="car" speedFactor="1.01" vaporized=""/>
    <personinfo id="pf_4.12" depart="180.00" type="ped" speedFactor="0.91" duration="144.45" waitingTime="14.40" timeLoss="27.54" traveltime="144.45">
        <walk depart="180.00" departPos="25.00" arrival="243.25" arrivalPos="29.11" duration="63.25" routeLength="72.15" timeLoss="6.39" maxSpeed="1.27" waitingTime="0.00"/>
        <walk depart="243.25" departPos="29.11" arrival="324.45" arrivalPos="29.05" duration="81.20" routeLength="76.20" timeLoss="21.15" maxSpeed="1.27" waitingTime="14.40"/>
    </personinfo>
    <personinfo id="pf_4.13" depart="195.00" type="ped" speedFactor="0.92" duration="129.90" waitingTime="0.65" timeLoss="13.47" traveltime="129.90">