<?xml version="1.0" encoding="UTF-8"?>

<!-- generated on 2025-12-04 00:20:42 by Eclipse SUMO sumo Version 1.24.0
<sumoConfiguration xmlns:xsi="http://www.w3.org/2001/XMLSchema-instance" xsi:noNamespaceSchemaLocation="http://sumo.dlr.de/xsd/sumoConfiguration.xsd">

    <input>
        <net-file value="Olivarez_traci\network/baseline.net.xml"/>
        <route-files value="Olivarez_traci\demand/flows_traffic_jam.rou.xml"/>
        <additional-files value="Olivarez_traci\additionals/map.poly.xml,Olivarez_traci\ additionals/detectors.add.xml"/>
    </input>

    <output>
        <tripinfo-output value="Olivarez_traci\output_DDPG\SD_DDPG_one_trafficlight_trips.xml"/>
        <statistic-output value="Olivarez_traci\output_DDPG\SD_DDPG_one_trafficlight_stats.xml"/>
    </output>

    <time>
        <begin value="0"/>
        <end value="10800"/>
        <step-length value="0.05"/>
    </time>

    <processing>
        <lateral-resolution value="0.1"/>
        <collision.action value="none"/>
        <collision.check-junctions value="false"/>
        <collision.mingap-factor value="0"/>
    </processing>

    <report>
        <no-warnings value="true"/>
    </report>

    <traci_server>
        <remote-port value="49944"/>
    </traci_server>

    <gui_only>
        <delay value="0"/>
    </gui_only>

</sumoConfiguration>
-->

<tripinfos xmlns:xsi="http://www.w3.org/2001/XMLSchema-instance" xsi:noNamespaceSchemaLocation="http://sumo.dlr.de/xsd/tripinfo_file.xsd">
    <personinfo id="pf_2.0" depart="0.00" type="ped" speedFactor="0.83" duration="29.80" waitingTime="0.00" timeLoss="3.01" traveltime="29.80">
        <walk depart="0.00" departPos="15.09" arrival="29.80" arrivalPos="3.44" duration="29.80" routeLength="30.72" timeLoss="3.01" maxSpeed="1.15" waitingTime="0.00"/>
    </personinfo>
    <personinfo id="pf_2.1" depart="15.00" type="ped" speedFactor="0.87" duration="32.50" waitingTime="4.30" timeLoss="7.15" traveltime="32.50">
        <walk depart="15.00" departPos="15.09" arrival="47.50" arrivalPos="3.44" duration="32.50" routeLength="30.72" timeLoss="7.15" maxSpeed="1.21" waitingTime="4.30"/>
    </personinfo>
    <tripinfo id="D3_1.0" depart="7.65" departLane="140483224#1_2" departPos="5.10" departPosLat="0.00" departSpeed="27.02" departDelay="0.00" arrival="52.70" arrivalLane="-440471861#0_2" arrivalPos="31.52" arrivalPosLat="0.00" arrivalSpeed="26.96" duration="45.05" routeLength="1067.97" waitingTime="0.00" waitingCount="0" stopTime="0.00" timeLoss="3.94" rerouteNo="1" devices="tripinfo_D3_1.0 routing_D3_1.0" vType="car" speedFactor="0.97" vaporized=""/>
    <tripinfo id="A2_1.1" depart="8.20" departLane="-793339796#2_1" departPos="2.30" departPosLat="0.00" departSpeed="29.35" departDelay="0.00" arrival="56.80" arrivalLane="-440471861#0_2" arrivalPos="31.52" arrivalPosLat="0.00" arrivalSpeed="29.35" duration="48.60" routeLength="1084.07" waitingTime="5.80" waitingCount="1" stopTime="0.00" timeLoss="11.63" rerouteNo="1" devices="tripinfo_A2_1.1 routing_A2_1.1" vType="motorcycle" speedFactor="1.06" vaporized=""/>
    <personinfo id="pf_2.2" depart="30.00" type="ped" speedFactor="0.92" duration="27.80" waitingTime="1.15" timeLoss="3.68" traveltime="27.80">
        <walk depart="30.00" departPos="15.09" arrival="57.80" arrivalPos="3.44" duration="27.80" routeLength="30.72" timeLoss="3.68" maxSpeed="1.27" waitingTime="1.15"/>
    </personinfo>
    <tripinfo id="A2_1.0" depart="4.45" departLane="-793339796#2_1" departPos="5.10" departPosLat="0.00" departSpeed="29.34" departDelay="0.00" arrival="60.95" arrivalLane="-440471861#0_1" arrivalPos="31.52" arrivalPosLat="-0.00" arrivalSpeed="29.31" duration="56.50" routeLength="1081.27" waitingTime="9.15" waitingCount="1" stopTime="0.00" timeLoss="19.63" rerouteNo="1" devices="tripinfo_A2_1.0 routing_A2_1.0" vType="car" speedFactor="1.06" vaporized=""/>
    <tripinfo id="A3_1.0" depart="15.50" departLane="-793339796#2_2" departPos="5.10" departPosLat="0.00" departSpeed="27.37" departDelay="0.00" arrival="62.90" arrivalLane="-140483224#1_2" arrivalPos="64.04" arrivalPosLat="0.00" arrivalSpeed="27.31" duration="47.40" routeLength="1080.94" waitingTime="0.00" waitingCount="0" stopTime="0.00" timeLoss="6.35" rerouteNo="1" devices="tripinfo_A3_1.0 routing_A3_1.0" vType="car" speedFactor="0.99" vaporized=""/>
    <tripinfo id="A2_1.2" depart="20.70" departLane="-793339796#2_1" departPos="2.30" departPosLat="0.00" departSpeed="26.42" departDelay="0.00" arrival="63.50" arrivalLane="-440471861#0_1" arrivalPos="31.52" arrivalPosLat="0.00" arrivalSpeed="26.38" duration="42.80" routeLength="1084.07" waitingTime="0.00" waitingCount="0" stopTime="0.00" timeLoss="1.75" rerouteNo="1" devices="tripinfo_A2_1.2 routing_A2_1.2" vType="tricycle" speedFactor="0.95" vaporized=""/>
    <tripinfo id="A2_1.3" depart="29.20" departLane="-793339796#2_1" departPos="7.20" departPosLat="0.00" departSpeed="27.71" departDelay="2.15" arrival="68.20" arrivalLane="-440471861#0_1" arrivalPos="31.52" arrivalPosLat="0.00" arrivalSpeed="27.69" duration="39.00" routeLength="1079.17" waitingTime="0.00" waitingCount="0" stopTime="0.00" timeLoss="0.02" rerouteNo="1" devices="tripinfo_A2_1.3 routing_A2_1.3" vType="truck" speedFactor="1.00" vaporized=""/>
    <personinfo id="pf_2.3" depart="45.00" type="ped" speedFactor="0.95" duration="25.95" waitingTime="0.00" timeLoss="2.64" traveltime="25.95">
        <walk depart="45.00" departPos="15.09" arrival="70.95" arrivalPos="3.44" duration="25.95" routeLength="30.72" timeLoss="2.64" maxSpeed="1.32" waitingTime="0.00"/>
    </personinfo>
    <tripinfo id="A3_1.1" depart="30.50" departLane="-793339796#2_2" departPos="12.10" departPosLat="0.00" departSpeed="27.78" departDelay="0.00" arrival="78.60" arrivalLane="-140483224#1_2" arrivalPos="64.04" arrivalPosLat="0.00" arrivalSpeed="27.77" duration="48.10" routeLength="1073.94" waitingTime="0.00" waitingCount="0" stopTime="0.00" timeLoss="7.94" rerouteNo="1" devices="tripinfo_A3_1.1 routing_A3_1.1" vType="bus" speedFactor="1.00" vaporized=""/>
    <tripinfo id="D1_1.0" depart="0.60" departLane="140483224#1_1" departPos="5.10" departPosLat="0.00" departSpeed="24.93" departDelay="0.00" arrival="81.10" arrivalLane="-793339796#2_2" arrivalPos="82.50" arrivalPosLat="0.00" arrivalSpeed="24.89" duration="80.50" routeLength="1648.38" waitingTime="0.00" waitingCount="0" stopTime="0.00" timeLoss="11.75" rerouteNo="1" devices="tripinfo_D1_1.0 routing_D1_1.0" vType="car" speedFactor="0.90" vaporized=""/>
    <personinfo id="pf_2.4" depart="60.00" type="ped" speedFactor="1.13" duration="21.70" waitingTime="0.00" timeLoss="2.16" traveltime="21.70">
        <walk depart="60.00" departPos="15.09" arrival="81.70" arrivalPos="3.44" duration="21.70" routeLength="30.72" timeLoss="2.16" maxSpeed="1.57" waitingTime="0.00"/>
    </personinfo>
    <tripinfo id="A2_1.4" depart="62.90" departLane="-793339796#2_1" departPos="5.10" departPosLat="0.00" departSpeed="27.21" departDelay="0.00" arrival="102.70" arrivalLane="-440471861#0_1" arrivalPos="31.52" arrivalPosLat="0.00" arrivalSpeed="27.15" duration="39.80" routeLength="1081.27" waitingTime="0.00" waitingCount="0" stopTime="0.00" timeLoss="0.05" rerouteNo="1" devices="tripinfo_A2_1.4 routing_A2_1.4" vType="car" speedFactor="0.98" vaporized=""/>
    <personinfo id="pf_2.5" depart="75.00" type="ped" speedFactor="0.93" duration="28.50" waitingTime="2.15" timeLoss="4.75" traveltime="28.50">
        <walk depart="75.00" departPos="15.09" arrival="103.50" arrivalPos="3.44" duration="28.50" routeLength="30.72" timeLoss="4.75" maxSpeed="1.29" waitingTime="2.15"/>
    </personinfo>
    <personinfo id="pf_4.0" depart="0.00" type="ped" speedFactor="1.11" duration="106.75" waitingTime="0.00" timeLoss="10.55" traveltime="106.75">
        <walk depart="0.00" departPos="25.00" arrival="51.95" arrivalPos="29.11" duration="51.95" routeLength="72.15" timeLoss="5.16" maxSpeed="1.54" waitingTime="0.00"/>
        <walk depart="51.95" departPos="29.11" arrival="106.75" arrivalPos="29.05" duration="54.80" routeLength="76.20" timeLoss="5.39" maxSpeed="1.54" waitingTime="0.00"/>
    </personinfo>
    <tripinfo id="A2_1.5" depart="64.95" departLane="-793339796#2_1" departPos="7.20" departPosLat="0.00" departSpeed="24.90" departDelay="0.00" arrival="110.10" arrivalLane="-440471861#0_1" arrivalPos="31.52" arrivalPosLat="0.00" arrivalSpeed="24.88" duration="45.15" routeLength="1079.17" waitingTime="0.00" waitingCount="0" stopTime="0.00" timeLoss="1.77" rerouteNo="1" devices="tripinfo_A2_1.5 routing_A2_1.5" vType="truck" speedFactor="0.90" vaporized=""/>
    <tripinfo id="A3_1.2" depart="63.55" departLane="-793339796#2_2" departPos="7.20" departPosLat="0.00" departSpeed="28.29" departDelay="0.00" arrival="110.55" arrivalLane="-140483224#1_2" arrivalPos="64.04" arrivalPosLat="0.00" arrivalSpeed="28.28" duration="47.00" routeLength="1078.84" waitingTime="0.00" waitingCount="0" stopTime="0.00" timeLoss="7.33" rerouteNo="1" devices="tripinfo_A3_1.2 routing_A3_1.2" vType="truck" speedFactor="1.02" vaporized=""/>
    <personinfo id="pf_2.6" depart="90.00" type="ped" speedFactor="1.18" duration="20.85" waitingTime="0.00" timeLoss="2.08" traveltime="20.85">
        <walk depart="90.00" departPos="15.09" arrival="110.85" arrivalPos="3.44" duration="20.85" routeLength="30.72" timeLoss="2.08" maxSpeed="1.64" waitingTime="0.00"/>
    </personinfo>
    <personinfo id="pf_2.7" depart="105.00" type="ped" speedFactor="1.15" duration="21.30" waitingTime="0.00" timeLoss="2.14" traveltime="21.30">
        <walk depart="105.00" departPos="15.09" arrival="126.30" arrivalPos="3.44" duration="21.30" routeLength="30.72" timeLoss="2.14" maxSpeed="1.60" waitingTime="0.00"/>
    </personinfo>
    <personinfo id="pf_4.1" depart="15.00" type="ped" speedFactor="1.02" duration="116.45" waitingTime="0.00" timeLoss="11.26" traveltime="116.45">
        <walk depart="15.00" departPos="25.00" arrival="71.60" arrivalPos="29.11" duration="56.60" routeLength="72.15" timeLoss="5.44" maxSpeed="1.41" waitingTime="0.00"/>
        <walk depart="71.60" departPos="29.11" arrival="131.45" arrivalPos="29.05" duration="59.85" routeLength="76.20" timeLoss="5.82" maxSpeed="1.41" waitingTime="0.00"/>
    </personinfo>
    <personinfo id="pf_2.8" depart="120.00" type="ped" speedFactor="1.01" duration="26.10" waitingTime="1.70" timeLoss="4.09" traveltime="26.10">
        <walk depart="120.00" departPos="15.09" arrival="146.10" arrivalPos="3.44" duration="26.10" routeLength="30.72" timeLoss="4.09" maxSpeed="1.40" waitingTime="1.70"/>
    </personinfo>
    <personinfo id="pf_4.2" depart="30.00" type="ped" speedFactor="1.01" duration="117.55" waitingTime="0.00" timeLoss="11.87" traveltime="117.55">
        <walk depart="30.00" departPos="25.00" arrival="87.05" arrivalPos="29.11" duration="57.05" routeLength="72.15" timeLoss="5.65" maxSpeed="1.40" waitingTime="0.00"/>
        <walk depart="87.05" departPos="29.11" arrival="147.55" arrivalPos="29.05" duration="60.50" routeLength="76.20" timeLoss="6.22" maxSpeed="1.40" waitingTime="0.00"/>
    </personinfo>
    <tripinfo id="A3_1.3" depart="106.60" departLane="-793339796#2_2" departPos="8.10" departPosLat="0.00" departSpeed="27.78" departDelay="9.90" arrival="154.50" arrivalLane="-140483224#1_2" arrivalPos="64.04" arrivalPosLat="0.00" arrivalSpeed="27.76" duration="47.90" routeLength="1077.94" waitingTime="0.00" waitingCount="0" stopTime="0.00" timeLoss="7.58" rerouteNo="1" devices="tripinfo_A3_1.3 routing_A3_1.3" vType="jeep" speedFactor="1.00" vaporized=""/>
    <tripinfo id="B2_1.0" depart="6.95" departLane="-361257727#0_1" departPos="5.10" departPosLat="0.00" departSpeed="8.38" departDelay="0.00" arrival="155.85" arrivalLane="-440471861#0_1" arrivalPos="31.52" arrivalPosLat="0.00" arrivalSpeed="27.94" duration="148.90" routeLength="1397.68" waitingTime="23.00" waitingCount="1" stopTime="0.00" timeLoss="32.58" rerouteNo="1" devices="tripinfo_B2_1.0 routing_B2_1.0" vType="car" speedFactor="1.01" vaporized=""/>
    <tripinfo id="B2_1.1" depart="31.00" departLane="-361257727#0_1" departPos="2.30" departPosLat="0.00" departSpeed="9.48" departDelay="0.00" arrival="157.60" arrivalLane="-440471861#0_1" arrivalPos="31.52" arrivalPosLat="-0.00" arrivalSpeed="31.57" duration="126.60" routeLength="1400.48" waitingTime="8.00" waitingCount="1" stopTime="0.00" timeLoss="23.47" rerouteNo="1" devices="tripinfo_B2_1.1 routing_B2_1.1" vType="tricycle" speedFactor="1.14" vaporized=""/>
    <personinfo id="pf_2.9" depart="135.00" type="ped" speedFactor="1.17" duration="22.80" waitingTime="1.75" timeLoss="3.92" traveltime="22.80">
        <walk depart="135.00" departPos="15.09" arrival="157.80" arrivalPos="3.44" duration="22.80" routeLength="30.72" timeLoss="3.92" maxSpeed="1.63" waitingTime="1.75"/>
    </personinfo>
    <personinfo id="pf_2.10" depart="150.00" type="ped" speedFactor="0.99" duration="24.50" waitingTime="0.00" timeLoss="2.26" traveltime="24.50">
        <walk depart="150.00" departPos="15.09" arrival="174.50" arrivalPos="3.44" duration="24.50" routeLength="30.72" timeLoss="2.26" maxSpeed="1.38" waitingTime="0.00"/>
    </personinfo>
    <personinfo id="pf_4.4" depart="60.00" type="ped" speedFactor="1.05" duration="116.10" waitingTime="2.90" timeLoss="14.03" traveltime="116.10">
        <walk depart="60.00" departPos="25.00" arrival="118.05" arrivalPos="29.11" duration="58.05" routeLength="72.15" timeLoss="8.41" maxSpeed="1.45" waitingTime="2.90"/>
        <walk depart="118.05" departPos="29.11" arrival="176.10" arrivalPos="29.05" duration="58.05" routeLength="76.20" timeLoss="5.62" maxSpeed="1.45" waitingTime="0.00"/>
    </personinfo>
    <personinfo id="pf_4.5" depart="75.00" type="ped" speedFactor="1.12" duration="105.35" waitingTime="0.00" timeLoss="10.36" traveltime="105.35">
        <walk depart="75.00" departPos="25.00" arrival="126.30" arrivalPos="29.11" duration="51.30" routeLength="72.15" timeLoss="5.10" maxSpeed="1.56" waitingTime="0.00"/>
        <walk depart="126.30" departPos="29.11" arrival="180.35" arrivalPos="29.05" duration="54.05" routeLength="76.20" timeLoss="5.26" maxSpeed="1.56" waitingTime="0.00"/>
    </personinfo>
    <tripinfo id="A1_1.0" depart="78.95" departLane="-793339796#2_1" departPos="2.30" departPosLat="0.00" departSpeed="26.46" departDelay="0.00" arrival="183.90" arrivalLane="-145894807#0_1" arrivalPos="260.95" arrivalPosLat="0.00" arrivalSpeed="7.91" duration="104.95" routeLength="1094.97" waitingTime="2.80" waitingCount="2" stopTime="0.00" timeLoss="13.99" rerouteNo="1" devices="tripinfo_A1_1.0 routing_A1_1.0" vType="tricycle" speedFactor="0.95" vaporized=""/>
    <personinfo id="pf_2.11" depart="165.00" type="ped" speedFactor="1.02" duration="24.10" waitingTime="0.00" timeLoss="2.41" traveltime="24.10">
        <walk depart="165.00" departPos="15.09" arrival="189.10" arrivalPos="3.44" duration="24.10" routeLength="30.72" timeLoss="2.41" maxSpeed="1.42" waitingTime="0.00"/>
    </personinfo>
    <tripinfo id="B3_1.0" depart="63.85" departLane="-361257727#0_1" departPos="8.10" departPosLat="0.00" departSpeed="8.33" departDelay="0.00" arrival="192.05" arrivalLane="-140483224#1_1" arrivalPos="64.04" arrivalPosLat="0.00" arrivalSpeed="27.78" duration="128.20" routeLength="1407.94" waitingTime="0.00" waitingCount="0" stopTime="0.00" timeLoss="11.34" rerouteNo="1" devices="tripinfo_B3_1.0 routing_B3_1.0" vType="jeep" speedFactor="1.00" vaporized=""/>
    <tripinfo id="B2_1.2" depart="65.15" departLane="-361257727#0_1" departPos="8.10" departPosLat="0.00" departSpeed="5.34" departDelay="0.55" arrival="195.50" arrivalLane="-440471861#0_1" arrivalPos="31.52" arrivalPosLat="0.00" arrivalSpeed="27.78" duration="130.35" routeLength="1394.68" waitingTime="0.00" waitingCount="0" stopTime="0.00" timeLoss="13.66" rerouteNo="1" devices="tripinfo_B2_1.2 routing_B2_1.2" vType="jeep" speedFactor="1.00" vaporized=""/>
    <tripinfo id="B2_1.3" depart="75.15" departLane="-361257727#0_1" departPos="5.10" departPosLat="0.00" departSpeed="8.23" departDelay="0.00" arrival="198.75" arrivalLane="-440471861#0_1" arrivalPos="31.52" arrivalPosLat="-0.00" arrivalSpeed="27.41" duration="123.60" routeLength="1397.68" waitingTime="0.00" waitingCount="0" stopTime="0.00" timeLoss="5.13" rerouteNo="1" devices="tripinfo_B2_1.3 routing_B2_1.3" vType="car" speedFactor="0.99" vaporized=""/>
    <personinfo id="pf_4.6" depart="90.00" type="ped" speedFactor="1.01" duration="124.70" waitingTime="6.70" timeLoss="18.48" traveltime="124.70">
        <walk depart="90.00" departPos="25.00" arrival="147.25" arrivalPos="29.11" duration="57.25" routeLength="72.15" timeLoss="5.59" maxSpeed="1.40" waitingTime="0.00"/>
        <walk depart="147.25" departPos="29.11" arrival="214.70" arrivalPos="29.05" duration="67.45" routeLength="76.20" timeLoss="12.89" maxSpeed="1.40" waitingTime="6.70"/>
    </personinfo>
    <tripinfo id="B1_1.0" depart="37.80" departLane="-361257727#0_1" departPos="5.10" departPosLat="0.00" departSpeed="7.39" departDelay="0.00" arrival="214.85" arrivalLane="-793339796#2_2" arrivalPos="82.50" arrivalPosLat="0.00" arrivalSpeed="24.62" duration="177.05" routeLength="1915.44" waitingTime="6.30" waitingCount="1" stopTime="0.00" timeLoss="25.33" rerouteNo="1" devices="tripinfo_B1_1.0 routing_B1_1.0" vType="car" speedFactor="0.89" vaporized=""/>
    <personinfo id="pf_4.3" depart="45.00" type="ped" speedFactor="0.69" duration="172.55" waitingTime="0.35" timeLoss="17.84" traveltime="172.55">
        <walk depart="45.00" departPos="25.00" arrival="128.80" arrivalPos="29.11" duration="83.80" routeLength="72.15" timeLoss="8.56" maxSpeed="0.96" waitingTime="0.00"/>
        <walk depart="128.80" departPos="29.11" arrival="217.55" arrivalPos="29.05" duration="88.75" routeLength="76.20" timeLoss="9.28" maxSpeed="0.96" waitingTime="0.35"/>
    </personinfo>
    <personinfo id="pf_2.13" depart="195.00" type="ped" speedFactor="1.18" duration="27.45" waitingTime="6.65" timeLoss="8.70" traveltime="27.45">
        <walk depart="195.00" departPos="15.09" arrival="222.45" arrivalPos="3.44" duration="27.45" routeLength="30.72" timeLoss="8.70" maxSpeed="1.64" waitingTime="6.65"/>
    </personinfo>
    <personinfo id="pf_4.7" depart="105.00" type="ped" speedFactor="1.01" duration="117.55" waitingTime="0.00" timeLoss="11.52" traveltime="117.55">
        <walk depart="105.00" departPos="25.00" arrival="162.00" arrivalPos="29.11" duration="57.00" routeLength="72.15" timeLoss="5.43" maxSpeed="1.40" waitingTime="0.00"/>
        <walk depart="162.00" departPos="29.11" arrival="222.55" arrivalPos="29.05" duration="60.55" routeLength="76.20" timeLoss="6.09" maxSpeed="1.40" waitingTime="0.00"/>
    </personinfo>
    <personinfo id="pf_2.12" depart="180.00" type="ped" speedFactor="0.97" duration="45.35" waitingTime="20.15" timeLoss="22.62" traveltime="45.35">
        <walk depart="180.00" departPos="15.09" arrival="225.35" arrivalPos="3.44" duration="45.35" routeLength="30.72" timeLoss="22.62" maxSpeed="1.35" waitingTime="20.15"/>
    </personinfo>
    <personinfo id="pf_4.8" depart="120.00" type="ped" speedFactor="1.09" duration="109.10" waitingTime="0.55" timeLoss="11.41" traveltime="109.10">
        <walk depart="120.00" departPos="25.00" arrival="173.30" arrivalPos="29.11" duration="53.30" routeLength="72.15" timeLoss="5.79" maxSpeed="1.52" waitingTime="0.55"/>
        <walk depart="173.30" departPos="29.11" arrival="229.10" arrivalPos="29.05" duration="55.80" routeLength="76.20" timeLoss="5.62" maxSpeed="1.52" waitingTime="0.00"/>
    </personinfo>
    <tripinfo id="A1_1.1" depart="136.95" departLane="-793339796#2_1" departPos="8.10" departPosLat="0.00" departSpeed="27.78" departDelay="11.30" arrival="230.70" arrivalLane="-145894807#0_1" arrivalPos="260.95" arrivalPosLat="0.00" arrivalSpeed="8.33" duration="93.75" routeLength="1053.72" waitingTime="0.00" waitingCount="0" stopTime="0.00" timeLoss="4.34" rerouteNo="1" devices="tripinfo_A1_1.1 routing_A1_1.1" vType="jeep" speedFactor="1.00" vaporized=""/>
    <personinfo id="pf_2.14" depart="210.00" type="ped" speedFactor="1.10" duration="22.30" waitingTime="0.00" timeLoss="2.23" traveltime="22.30">
        <walk depart="210.00" departPos="15.09" arrival="232.30" arrivalPos="3.44" duration="22.30" routeLength="30.72" timeLoss="2.23" maxSpeed="1.53" waitingTime="0.00"/>
    </personinfo>
    <tripinfo id="C1_1.7" depart="147.20" departLane="440471861#0_1" departPos="2.30" departPosLat="0.00" departSpeed="31.15" departDelay="0.00" arrival="234.60" arrivalLane="-793339796#2_2" arrivalPos="82.50" arrivalPosLat="0.00" arrivalSpeed="31.14" duration="87.40" routeLength="1656.79" waitingTime="11.05" waitingCount="1" stopTime="0.00" timeLoss="33.20" rerouteNo="1" devices="tripinfo_C1_1.7 routing_C1_1.7" vType="motorcycle" speedFactor="1.12" vaporized=""/>
    <tripinfo id="C1_1.0" depart="17.65" departLane="440471861#0_1" departPos="2.30" departPosLat="0.00" departSpeed="28.93" departDelay="0.00" arrival="235.90" arrivalLane="-793339796#2_2" arrivalPos="82.50" arrivalPosLat="-0.00" arrivalSpeed="28.81" duration="218.25" routeLength="1656.79" waitingTime="139.10" waitingCount="2" stopTime="0.00" timeLoss="159.96" rerouteNo="1" devices="tripinfo_C1_1.0 routing_C1_1.0" vType="motorcycle" speedFactor="1.04" vaporized=""/>
    <tripinfo id="C1_1.8" depart="163.05" departLane="440471861#0_1" departPos="2.30" departPosLat="0.00" departSpeed="27.78" departDelay="0.00" arrival="237.00" arrivalLane="-793339796#2_2" arrivalPos="82.50" arrivalPosLat="0.00" arrivalSpeed="30.33" duration="73.95" routeLength="1656.79" waitingTime="0.00" waitingCount="0" stopTime="0.00" timeLoss="18.42" rerouteNo="1" devices="tripinfo_C1_1.8 routing_C1_1.8" vType="motorcycle" speedFactor="1.09" vaporized=""/>
    <tripinfo id="C3_1.0" depart="11.40" departLane="440471861#0_1" departPos="12.10" departPosLat="0.00" departSpeed="27.78" departDelay="0.00" arrival="237.40" arrivalLane="-140483224#1_2" arrivalPos="64.04" arrivalPosLat="0.00" arrivalSpeed="27.77" duration="226.00" routeLength="1045.78" waitingTime="160.65" waitingCount="2" stopTime="0.00" timeLoss="186.96" rerouteNo="1" devices="tripinfo_C3_1.0 routing_C3_1.0" vType="bus" speedFactor="1.00" vaporized=""/>
    <tripinfo id="C3_1.1" depart="23.60" departLane="440471861#0_1" departPos="7.20" departPosLat="0.00" departSpeed="26.64" departDelay="0.00" arrival="238.20" arrivalLane="-140483224#1_1" arrivalPos="64.04" arrivalPosLat="-0.00" arrivalSpeed="26.63" duration="214.60" routeLength="1050.68" waitingTime="143.30" waitingCount="1" stopTime="0.00" timeLoss="173.74" rerouteNo="1" devices="tripinfo_C3_1.1 routing_C3_1.1" vType="truck" speedFactor="0.96" vaporized=""/>
    <tripinfo id="C1_1.3" depart="41.05" departLane="440471861#0_1" departPos="2.30" departPosLat="0.00" departSpeed="29.34" departDelay="0.00" arrival="238.55" arrivalLane="-793339796#2_2" arrivalPos="82.50" arrivalPosLat="0.00" arrivalSpeed="29.20" duration="197.50" routeLength="1656.79" waitingTime="115.90" waitingCount="2" stopTime="0.00" timeLoss="139.95" rerouteNo="1" devices="tripinfo_C1_1.3 routing_C1_1.3" vType="motorcycle" speedFactor="1.06" vaporized=""/>
    <tripinfo id="C3_1.2" depart="43.55" departLane="440471861#0_1" departPos="5.10" departPosLat="0.00" departSpeed="27.03" departDelay="0.00" arrival="238.75" arrivalLane="-140483224#1_2" arrivalPos="64.04" arrivalPosLat="0.00" arrivalSpeed="30.03" duration="195.20" routeLength="1052.78" waitingTime="121.20" waitingCount="2" stopTime="0.00" timeLoss="160.86" rerouteNo="1" devices="tripinfo_C3_1.2 routing_C3_1.2" vType="car" speedFactor="1.14" vaporized=""/>
    <tripinfo id="C3_1.3" depart="54.65" departLane="440471861#0_1" departPos="5.10" departPosLat="0.00" departSpeed="29.67" departDelay="0.00" arrival="239.85" arrivalLane="-140483224#1_2" arrivalPos="64.04" arrivalPosLat="0.00" arrivalSpeed="29.66" duration="185.20" routeLength="1052.78" waitingTime="110.55" waitingCount="2" stopTime="0.00" timeLoss="148.43" rerouteNo="1" devices="tripinfo_C3_1.3 routing_C3_1.3" vType="car" speedFactor="1.07" vaporized=""/>
    <tripinfo id="C3_1.4" depart="78.25" departLane="440471861#0_1" departPos="5.10" departPosLat="0.00" departSpeed="23.65" departDelay="0.00" arrival="240.30" arrivalLane="-140483224#1_1" arrivalPos="64.04" arrivalPosLat="-0.00" arrivalSpeed="23.59" duration="162.05" routeLength="1052.78" waitingTime="83.70" waitingCount="2" stopTime="0.00" timeLoss="115.89" rerouteNo="1" devices="tripinfo_C3_1.4 routing_C3_1.4" vType="car" speedFactor="0.85" vaporized=""/>
    <tripinfo id="C3_1.5" depart="104.00" departLane="440471861#0_1" departPos="5.10" departPosLat="0.00" departSpeed="27.88" departDelay="0.00" arrival="241.15" arrivalLane="-140483224#1_2" arrivalPos="64.04" arrivalPosLat="0.00" arrivalSpeed="27.85" duration="137.15" routeLength="1052.78" waitingTime="76.75" waitingCount="2" stopTime="0.00" timeLoss="98.03" rerouteNo="1" devices="tripinfo_C3_1.5 routing_C3_1.5" vType="car" speedFactor="1.00" vaporized=""/>
    <tripinfo id="C3_1.6" depart="125.75" departLane="440471861#0_1" departPos="2.30" departPosLat="0.00" departSpeed="31.61" departDelay="0.00" arrival="241.40" arrivalLane="-140483224#1_1" arrivalPos="64.04" arrivalPosLat="-0.00" arrivalSpeed="28.10" duration="115.65" routeLength="1055.58" waitingTime="50.70" waitingCount="2" stopTime="0.00" timeLoss="81.07" rerouteNo="1" devices="tripinfo_C3_1.6 routing_C3_1.6" vType="motorcycle" speedFactor="1.14" vaporized=""/>
    <tripinfo id="C3_1.7" depart="143.30" departLane="440471861#0_1" departPos="7.20" departPosLat="0.00" departSpeed="29.36" departDelay="0.00" arrival="247.40" arrivalLane="-140483224#1_1" arrivalPos="64.04" arrivalPosLat="0.00" arrivalSpeed="29.36" duration="104.10" routeLength="1050.68" waitingTime="24.35" waitingCount="2" stopTime="0.00" timeLoss="67.05" rerouteNo="1" devices="tripinfo_C3_1.7 routing_C3_1.7" vType="truck" speedFactor="1.06" vaporized=""/>
    <tripinfo id="C1_1.1" depart="28.55" departLane="440471861#0_1" departPos="5.10" departPosLat="0.00" departSpeed="26.25" departDelay="0.00" arrival="248.65" arrivalLane="-793339796#2_2" arrivalPos="82.50" arrivalPosLat="0.00" arrivalSpeed="26.24" duration="220.10" routeLength="1653.99" waitingTime="123.95" waitingCount="2" stopTime="0.00" timeLoss="155.90" rerouteNo="1" devices="tripinfo_C1_1.1 routing_C1_1.1" vType="car" speedFactor="0.94" vaporized=""/>
    <tripinfo id="C3_1.8" depart="151.85" departLane="440471861#0_1" departPos="8.10" departPosLat="0.00" departSpeed="27.78" departDelay="0.00" arrival="249.80" arrivalLane="-140483224#1_1" arrivalPos="64.04" arrivalPosLat="0.00" arrivalSpeed="27.77" duration="97.95" routeLength="1049.78" waitingTime="14.60" waitingCount="2" stopTime="0.00" timeLoss="58.80" rerouteNo="1" devices="tripinfo_C3_1.8 routing_C3_1.8" vType="jeep" speedFactor="1.00" vaporized=""/>
    <tripinfo id="C3_1.9" depart="161.95" departLane="440471861#0_1" departPos="8.10" departPosLat="0.00" departSpeed="27.78" departDelay="0.00" arrival="251.95" arrivalLane="-140483224#1_1" arrivalPos="64.04" arrivalPosLat="0.00" arrivalSpeed="27.77" duration="90.00" routeLength="1049.78" waitingTime="4.50" waitingCount="1" stopTime="0.00" timeLoss="50.83" rerouteNo="1" devices="tripinfo_C3_1.9 routing_C3_1.9" vType="jeep" speedFactor="1.00" vaporized=""/>
    <personinfo id="pf_2.15" depart="225.00" type="ped" speedFactor="0.90" duration="27.25" waitingTime="0.00" timeLoss="2.69" traveltime="27.25">
        <walk depart="225.00" departPos="15.09" arrival="252.25" arrivalPos="3.44" duration="27.25" routeLength="30.72" timeLoss="2.69" maxSpeed="1.25" waitingTime="0.00"/>
    </personinfo>
    <tripinfo id="C3_1.10" depart="180.75" departLane="440471861#0_1" departPos="5.10" departPosLat="0.00" departSpeed="26.95" departDelay="0.00" arrival="253.35" arrivalLane="-140483224#1_1" arrivalPos="64.04" arrivalPosLat="0.00" arrivalSpeed="26.90" duration="72.60" routeLength="1052.78" waitingTime="0.00" waitingCount="0" stopTime="0.00" timeLoss="32.10" rerouteNo="1" devices="tripinfo_C3_1.10 routing_C3_1.10" vType="car" speedFactor="0.97" vaporized=""/>
    <tripinfo id="C2_1.0" depart="20.15" departLane="440471861#0_2" departPos="8.10" departPosLat="0.00" departSpeed="27.78" departDelay="0.00" arrival="257.40" arrivalLane="-145894807#0_1" arrivalPos="260.95" arrivalPosLat="0.00" arrivalSpeed="8.32" duration="237.25" routeLength="1079.06" waitingTime="141.80" waitingCount="1" stopTime="0.00" timeLoss="152.10" rerouteNo="1" devices="tripinfo_C2_1.0 routing_C2_1.0" vType="jeep" speedFactor="1.00" vaporized=""/>
    <personinfo id="pf_4.9" depart="135.00" type="ped" speedFactor="1.07" duration="124.20" waitingTime="13.85" timeLoss="24.72" traveltime="124.20">
        <walk depart="135.00" departPos="25.00" arrival="188.65" arrivalPos="29.11" duration="53.65" routeLength="72.15" timeLoss="5.27" maxSpeed="1.49" waitingTime="0.00"/>
        <walk depart="188.65" departPos="29.11" arrival="259.20" arrivalPos="29.05" duration="70.55" routeLength="76.20" timeLoss="19.45" maxSpeed="1.49" waitingTime="13.85"/>
    </personinfo>
    <tripinfo id="C2_1.1" depart="27.30" departLane="440471861#0_2" departPos="2.30" departPosLat="0.00" departSpeed="28.06" departDelay="0.00" arrival="259.65" arrivalLane="-145894807#0_1" arrivalPos="260.95" arrivalPosLat="0.00" arrivalSpeed="8.40" duration="232.35" routeLength="1084.86" waitingTime="129.15" waitingCount="2" stopTime="0.00" timeLoss="147.84" rerouteNo="1" devices="tripinfo_C2_1.1 routing_C2_1.1" vType="tricycle" speedFactor="1.01" vaporized=""/>