<?xml version="1.0" encoding="UTF-8"?>

<!-- generated on 2025-11-18 15:13:00 by Eclipse SUMO GUI Version 1.24.0
<sumoConfiguration xmlns:xsi="http://www.w3.org/2001/XMLSchema-instance" xsi:noNamespaceSchemaLocation="http://sumo.dlr.de/xsd/sumoConfiguration.xsd">

    <input>
        <net-file value="Olivarez_traci\network/map.net.xml"/>
        <route-files value="Olivarez_traci\demand/flows_normal_traffic.rou.xml"/>
        <additional-files value="Olivarez_traci\additionals/map.poly.xml,Olivarez_traci\ additionals/detectors.add.xml"/>
    </input>

    <output>
        <tripinfo-output value="Olivarez_traci\output_DDPG\SD_DDPG_trips.xml"/>
        <statistic-output value="Olivarez_traci\output_DDPG\SD_DDPG_stats.xml"/>
    </output>

    <time>
        <begin value="0"/>
        <end value="10800"/>
        <step-length value="0.05"/>
    </time>

    <processing>
        <lateral-resolution value="0.1"/>
        <collision.action value="none"/>
        <collision.check-junctions value="false"/>
        <collision.mingap-factor value="0"/>
    </processing>

    <report>
        <no-warnings value="true"/>
    </report>

    <traci_server>
        <remote-port value="64384"/>
    </traci_server>

    <gui_only>
        <delay value="0"/>
    </gui_only>

</sumoConfiguration>
-->

<tripinfos xmlns:xsi="http://www.w3.org/2001/XMLSchema-instance" xsi:noNamespaceSchemaLocation="http://sumo.dlr.de/xsd/tripinfo_file.xsd">
    <personinfo id="pf_2.0" depart="0.00" type="ped" speedFactor="1.06" duration="49.85" waitingTime="27.00" timeLoss="29.34" traveltime="49.85">
        <walk depart="0.00" departPos="15.72" arrival="49.85" arrivalPos="4.00" duration="49.85" routeLength="30.33" timeLoss="29.34" maxSpeed="1.48" waitingTime="27.00"/>
    </personinfo>
    <tripinfo id="D3_1.0" depart="7.65" departLane="140483224#1_1" departPos="12.10" departPosLat="0.00" departSpeed="27.78" departDelay="0.00" arrival="55.75" arrivalLane="-440471861#0_2" arrivalPos="31.49" arrivalPosLat="0.00" arrivalSpeed="27.78" duration="48.10" routeLength="1062.09" waitingTime="0.00" waitingCount="0" stopTime="0.00" timeLoss="8.43" rerouteNo="1" devices="tripinfo_D3_1.0 routing_D3_1.0" vType="bus" speedFactor="1.00" vaporized=""/>
    <personinfo id="pf_2.1" depart="36.00" type="ped" speedFactor="0.96" duration="25.20" waitingTime="0.00" timeLoss="2.37" traveltime="25.20">
        <walk depart="36.00" departPos="15.72" arrival="61.20" arrivalPos="4.00" duration="25.20" routeLength="30.33" timeLoss="2.37" maxSpeed="1.33" waitingTime="0.00"/>
    </personinfo>
    <tripinfo id="A2_1.0" depart="4.45" departLane="-793339796#2_1" departPos="5.10" departPosLat="0.00" departSpeed="23.90" departDelay="0.00" arrival="63.85" arrivalLane="-440471861#0_1" arrivalPos="31.49" arrivalPosLat="0.00" arrivalSpeed="23.87" duration="59.40" routeLength="1081.89" waitingTime="5.55" waitingCount="1" stopTime="0.00" timeLoss="14.10" rerouteNo="1" devices="tripinfo_A2_1.0 routing_A2_1.0" vType="car" speedFactor="0.86" vaporized=""/>
    <tripinfo id="D1_1.0" depart="0.60" departLane="140483224#1_1" departPos="5.10" departPosLat="0.00" departSpeed="27.72" departDelay="0.00" arrival="75.55" arrivalLane="-793339796#2_2" arrivalPos="83.13" arrivalPosLat="0.00" arrivalSpeed="27.70" duration="74.95" routeLength="1648.45" waitingTime="0.00" waitingCount="0" stopTime="0.00" timeLoss="13.15" rerouteNo="1" devices="tripinfo_D1_1.0 routing_D1_1.0" vType="car" speedFactor="1.00" vaporized=""/>
    <personinfo id="pf_2.2" depart="72.00" type="ped" speedFactor="0.97" duration="49.50" waitingTime="24.55" timeLoss="26.94" traveltime="49.50">
        <walk depart="72.00" departPos="15.72" arrival="121.50" arrivalPos="4.00" duration="49.50" routeLength="30.33" timeLoss="26.94" maxSpeed="1.34" waitingTime="24.55"/>
    </personinfo>
    <personinfo id="pf_2.3" depart="108.00" type="ped" speedFactor="0.95" duration="25.40" waitingTime="0.00" timeLoss="2.47" traveltime="25.40">
        <walk depart="108.00" departPos="15.72" arrival="133.40" arrivalPos="4.00" duration="25.40" routeLength="30.33" timeLoss="2.47" maxSpeed="1.32" waitingTime="0.00"/>
    </personinfo>
    <tripinfo id="C3_1.0" depart="43.55" departLane="440471861#0_1" departPos="5.10" departPosLat="0.00" departSpeed="31.29" departDelay="0.00" arrival="178.55" arrivalLane="-140483224#1_1" arrivalPos="64.17" arrivalPosLat="-0.00" arrivalSpeed="37.98" duration="135.00" routeLength="1053.93" waitingTime="78.00" waitingCount="2" stopTime="0.00" timeLoss="106.42" rerouteNo="1" devices="tripinfo_C3_1.0 routing_C3_1.0" vType="car" speedFactor="1.37" vaporized=""/>
    <tripinfo id="C3_1.1" depart="78.25" departLane="440471861#0_1" departPos="5.10" departPosLat="0.00" departSpeed="28.72" departDelay="0.00" arrival="180.15" arrivalLane="-140483224#1_2" arrivalPos="64.17" arrivalPosLat="0.00" arrivalSpeed="28.70" duration="101.90" routeLength="1053.93" waitingTime="39.30" waitingCount="3" stopTime="0.00" timeLoss="64.10" rerouteNo="1" devices="tripinfo_C3_1.1 routing_C3_1.1" vType="car" speedFactor="1.03" vaporized=""/>
    <tripinfo id="C1_1.0" depart="31.85" departLane="440471861#0_1" departPos="2.30" departPosLat="0.00" departSpeed="30.91" departDelay="0.00" arrival="183.25" arrivalLane="-793339796#2_2" arrivalPos="83.13" arrivalPosLat="0.00" arrivalSpeed="30.76" duration="151.40" routeLength="1656.83" waitingTime="83.45" waitingCount="2" stopTime="0.00" timeLoss="96.79" rerouteNo="1" devices="tripinfo_C1_1.0 routing_C1_1.0" vType="motorcycle" speedFactor="1.11" vaporized=""/>
    <tripinfo id="C2_1.0" depart="20.15" departLane="440471861#0_2" departPos="5.10" departPosLat="0.00" departSpeed="27.59" departDelay="0.00" arrival="185.85" arrivalLane="-145894807#0_1" arrivalPos="260.97" arrivalPosLat="0.00" arrivalSpeed="8.26" duration="165.70" routeLength="1099.91" waitingTime="70.90" waitingCount="1" stopTime="0.00" timeLoss="77.74" rerouteNo="1" devices="tripinfo_C2_1.0 routing_C2_1.0" vType="car" speedFactor="0.99" vaporized=""/>
    <tripinfo id="D3_1.1" depart="100.85" departLane="140483224#1_2" departPos="5.10" departPosLat="0.00" departSpeed="24.05" departDelay="0.00" arrival="188.50" arrivalLane="-440471861#0_2" arrivalPos="31.49" arrivalPosLat="0.00" arrivalSpeed="24.04" duration="87.65" routeLength="1069.09" waitingTime="31.70" waitingCount="1" stopTime="0.00" timeLoss="41.52" rerouteNo="1" devices="tripinfo_D3_1.1 routing_D3_1.1" vType="car" speedFactor="0.87" vaporized=""/>
    <personinfo id="pf_2.4" depart="144.00" type="ped" speedFactor="0.89" duration="49.15" waitingTime="21.95" timeLoss="24.72" traveltime="49.15">
        <walk depart="144.00" departPos="15.72" arrival="193.15" arrivalPos="4.00" duration="49.15" routeLength="30.33" timeLoss="24.72" maxSpeed="1.24" waitingTime="21.95"/>
    </personinfo>
    <tripinfo id="C1_1.1" depart="41.05" departLane="440471861#0_1" departPos="5.10" departPosLat="0.00" departSpeed="26.89" departDelay="0.00" arrival="199.70" arrivalLane="-793339796#2_2" arrivalPos="83.13" arrivalPosLat="0.00" arrivalSpeed="26.87" duration="158.65" routeLength="1654.03" waitingTime="69.75" waitingCount="3" stopTime="0.00" timeLoss="95.99" rerouteNo="1" devices="tripinfo_C1_1.1 routing_C1_1.1" vType="car" speedFactor="0.97" vaporized=""/>
    <personinfo id="pf_2.5" depart="180.00" type="ped" speedFactor="1.07" duration="22.45" waitingTime="0.00" timeLoss="2.09" traveltime="22.45">
        <walk depart="180.00" departPos="15.72" arrival="202.45" arrivalPos="4.00" duration="22.45" routeLength="30.33" timeLoss="2.09" maxSpeed="1.49" waitingTime="0.00"/>
    </personinfo>
    <tripinfo id="D1_1.2" depart="58.55" departLane="140483224#1_1" departPos="5.10" departPosLat="0.00" departSpeed="26.59" departDelay="0.00" arrival="212.25" arrivalLane="-793339796#2_2" arrivalPos="83.13" arrivalPosLat="0.00" arrivalSpeed="26.57" duration="153.70" routeLength="1648.45" waitingTime="68.60" waitingCount="1" stopTime="0.00" timeLoss="89.24" rerouteNo="1" devices="tripinfo_D1_1.2 routing_D1_1.2" vType="car" speedFactor="0.96" vaporized=""/>
    <tripinfo id="D1_1.1" depart="46.15" departLane="140483224#1_1" departPos="7.20" departPosLat="0.00" departSpeed="28.76" departDelay="0.00" arrival="220.80" arrivalLane="-793339796#2_2" arrivalPos="83.13" arrivalPosLat="0.00" arrivalSpeed="25.37" duration="174.65" routeLength="1646.35" waitingTime="74.40" waitingCount="2" stopTime="0.00" timeLoss="115.13" rerouteNo="1" devices="tripinfo_D1_1.1 routing_D1_1.1" vType="truck" speedFactor="1.04" vaporized=""/>
    <tripinfo id="D1_1.3" depart="118.00" departLane="140483224#1_1" departPos="8.10" departPosLat="0.00" departSpeed="27.78" departDelay="0.00" arrival="229.45" arrivalLane="-793339796#2_2" arrivalPos="83.13" arrivalPosLat="0.00" arrivalSpeed="24.37" duration="111.45" routeLength="1645.45" waitingTime="16.00" waitingCount="1" stopTime="0.00" timeLoss="49.85" rerouteNo="1" devices="tripinfo_D1_1.3 routing_D1_1.3" vType="jeep" speedFactor="1.00" vaporized=""/>
    <tripinfo id="A3_1.1" depart="148.50" departLane="-793339796#2_2" departPos="5.10" departPosLat="0.00" departSpeed="27.95" departDelay="0.00" arrival="255.85" arrivalLane="-140483224#1_1" arrivalPos="64.17" arrivalPosLat="-0.00" arrivalSpeed="27.92" duration="107.35" routeLength="1081.71" waitingTime="38.05" waitingCount="2" stopTime="0.00" timeLoss="67.16" rerouteNo="1" devices="tripinfo_A3_1.1 routing_A3_1.1" vType="car" speedFactor="1.01" vaporized=""/>
    <personinfo id="pf_1.0" depart="0.00" type="ped" speedFactor="1.06" duration="261.95" waitingTime="14.60" timeLoss="39.04" traveltime="261.95">
        <walk depart="0.00" departPos="25.00" arrival="261.95" arrivalPos="4.00" duration="261.95" routeLength="328.17" timeLoss="39.04" maxSpeed="1.47" waitingTime="14.60"/>
    </personinfo>
    <personinfo id="pf_2.6" depart="216.00" type="ped" speedFactor="1.01" duration="46.80" waitingTime="22.80" timeLoss="25.26" traveltime="46.80">
        <walk depart="216.00" departPos="15.72" arrival="262.80" arrivalPos="4.00" duration="46.80" routeLength="30.33" timeLoss="25.26" maxSpeed="1.41" waitingTime="22.80"/>
    </personinfo>
    <tripinfo id="A3_1.0" depart="107.30" departLane="-793339796#2_1" departPos="7.20" departPosLat="0.00" departSpeed="27.33" departDelay="0.00" arrival="262.95" arrivalLane="-140483224#1_2" arrivalPos="64.17" arrivalPosLat="0.00" arrivalSpeed="27.32" duration="155.65" routeLength="1079.61" waitingTime="81.35" waitingCount="3" stopTime="0.00" timeLoss="114.63" rerouteNo="1" devices="tripinfo_A3_1.0 routing_A3_1.0" vType="truck" speedFactor="0.98" vaporized=""/>
    <tripinfo id="B2_1.0" depart="64.60" departLane="-361257727#0_1" departPos="2.30" departPosLat="0.00" departSpeed="9.38" departDelay="0.00" arrival="265.00" arrivalLane="-440471861#0_1" arrivalPos="31.49" arrivalPosLat="0.00" arrivalSpeed="31.19" duration="200.40" routeLength="1417.09" waitingTime="89.75" waitingCount="1" stopTime="0.00" timeLoss="94.42" rerouteNo="1" devices="tripinfo_B2_1.0 routing_B2_1.0" vType="motorcycle" speedFactor="1.13" vaporized=""/>
    <tripinfo id="B2_1.1" depart="75.15" departLane="-361257727#0_1" departPos="2.30" departPosLat="0.00" departSpeed="8.63" departDelay="0.00" arrival="266.35" arrivalLane="-440471861#0_1" arrivalPos="31.49" arrivalPosLat="0.00" arrivalSpeed="28.65" duration="191.20" routeLength="1417.09" waitingTime="70.05" waitingCount="1" stopTime="0.00" timeLoss="76.01" rerouteNo="1" devices="tripinfo_B2_1.1 routing_B2_1.1" vType="motorcycle" speedFactor="1.04" vaporized=""/>
    <personinfo id="pf_2.7" depart="252.00" type="ped" speedFactor="1.03" duration="23.35" waitingTime="0.00" timeLoss="2.24" traveltime="23.35">
        <walk depart="252.00" departPos="15.72" arrival="275.35" arrivalPos="4.00" duration="23.35" routeLength="30.33" timeLoss="2.24" maxSpeed="1.44" waitingTime="0.00"/>
    </personinfo>
    <tripinfo id="A1_1.0" depart="222.65" departLane="-793339796#2_1" departPos="5.10" departPosLat="0.00" departSpeed="29.12" departDelay="0.00" arrival="311.80" arrivalLane="-145894807#0_1" arrivalPos="260.97" arrivalPosLat="0.00" arrivalSpeed="8.70" duration="89.15" routeLength="1057.45" waitingTime="0.00" waitingCount="0" stopTime="0.00" timeLoss="3.74" rerouteNo="1" devices="tripinfo_A1_1.0 routing_A1_1.0" vType="car" speedFactor="1.05" vaporized=""/>
    <tripinfo id="C3_1.2" depart="161.95" departLane="440471861#0_1" departPos="2.30" departPosLat="0.00" departSpeed="29.09" departDelay="0.00" arrival="331.50" arrivalLane="-140483224#1_1" arrivalPos="64.17" arrivalPosLat="-0.00" arrivalSpeed="29.01" duration="169.55" routeLength="1056.73" waitingTime="123.80" waitingCount="2" stopTime="0.00" timeLoss="132.11" rerouteNo="1" devices="tripinfo_C3_1.2 routing_C3_1.2" vType="motorcycle" speedFactor="1.05" vaporized=""/>
    <personinfo id="pf_2.8" depart="288.00" type="ped" speedFactor="1.06" duration="45.75" waitingTime="22.90" timeLoss="25.24" traveltime="45.75">
        <walk depart="288.00" departPos="15.72" arrival="333.75" arrivalPos="4.00" duration="45.75" routeLength="30.33" timeLoss="25.24" maxSpeed="1.48" waitingTime="22.90"/>
    </personinfo>
    <tripinfo id="C3_1.3" depart="180.75" departLane="440471861#0_1" departPos="8.10" departPosLat="0.00" departSpeed="27.78" departDelay="0.00" arrival="344.40" arrivalLane="-140483224#1_2" arrivalPos="64.17" arrivalPosLat="0.00" arrivalSpeed="27.78" duration="163.65" routeLength="1050.93" waitingTime="89.45" waitingCount="3" stopTime="0.00" timeLoss="124.70" rerouteNo="1" devices="tripinfo_C3_1.3 routing_C3_1.3" vType="jeep" speedFactor="1.00" vaporized=""/>
    <tripinfo id="B1_1.0" depart="171.30" departLane="-361257727#0_1" departPos="5.10" departPosLat="0.00" departSpeed="7.20" departDelay="0.00" arrival="345.75" arrivalLane="-793339796#2_2" arrivalPos="83.13" arrivalPosLat="0.00" arrivalSpeed="23.96" duration="174.45" routeLength="1915.62" waitingTime="1.35" waitingCount="1" stopTime="0.00" timeLoss="18.58" rerouteNo="1" devices="tripinfo_B1_1.0 routing_B1_1.0" vType="car" speedFactor="0.86" vaporized=""/>
    <tripinfo id="C2_1.1" depart="161.10" departLane="440471861#0_2" departPos="5.10" departPosLat="0.00" departSpeed="30.46" departDelay="0.00" arrival="349.15" arrivalLane="-145894807#0_1" arrivalPos="260.97" arrivalPosLat="0.00" arrivalSpeed="9.08" duration="188.05" routeLength="1099.91" waitingTime="101.10" waitingCount="1" stopTime="0.00" timeLoss="108.39" rerouteNo="1" devices="tripinfo_C2_1.1 routing_C2_1.1" vType="car" speedFactor="1.10" vaporized=""/>
    <personinfo id="pf_2.9" depart="324.00" type="ped" speedFactor="0.96" duration="25.20" waitingTime="0.00" timeLoss="2.44" traveltime="25.20">
        <walk depart="324.00" departPos="15.72" arrival="349.20" arrivalPos="4.00" duration="25.20" routeLength="30.33" timeLoss="2.44" maxSpeed="1.33" waitingTime="0.00"/>
    </personinfo>
    <tripinfo id="D3_1.2" depart="208.30" departLane="140483224#1_2" departPos="5.10" departPosLat="0.00" departSpeed="27.62" departDelay="0.00" arrival="352.05" arrivalLane="-440471861#0_2" arrivalPos="31.49" arrivalPosLat="0.00" arrivalSpeed="27.57" duration="143.75" routeLength="1069.09" waitingTime="89.50" waitingCount="2" stopTime="0.00" timeLoss="103.57" rerouteNo="1" devices="tripinfo_D3_1.2 routing_D3_1.2" vType="car" speedFactor="0.99" vaporized=""/>
    <tripinfo id="C1_1.3" depart="288.55" departLane="440471861#0_1" departPos="5.10" departPosLat="0.00" departSpeed="28.66" departDelay="0.00" arrival="356.55" arrivalLane="-793339796#2_2" arrivalPos="83.13" arrivalPosLat="0.00" arrivalSpeed="28.61" duration="68.00" routeLength="1654.03" waitingTime="0.00" waitingCount="0" stopTime="0.00" timeLoss="9.21" rerouteNo="1" devices="tripinfo_C1_1.3 routing_C1_1.3" vType="car" speedFactor="1.03" vaporized=""/>
    <tripinfo id="C1_1.2" depart="231.00" departLane="440471861#0_1" departPos="8.10" departPosLat="0.00" departSpeed="27.78" departDelay="0.00" arrival="357.05" arrivalLane="-793339796#2_1" arrivalPos="83.13" arrivalPosLat="0.00" arrivalSpeed="24.52" duration="126.05" routeLength="1651.03" waitingTime="26.20" waitingCount="1" stopTime="0.00" timeLoss="65.54" rerouteNo="1" devices="tripinfo_C1_1.2 routing_C1_1.2" vType="jeep" speedFactor="1.00" vaporized=""/>
    <tripinfo id="C2_1.2" depart="289.65" departLane="440471861#0_2" departPos="2.30" departPosLat="0.00" departSpeed="28.22" departDelay="0.00" arrival="376.90" arrivalLane="-145894807#0_1" arrivalPos="260.97" arrivalPosLat="0.00" arrivalSpeed="8.38" duration="87.25" routeLength="1102.71" waitingTime="0.00" waitingCount="0" stopTime="0.00" timeLoss="1.19" rerouteNo="1" devices="tripinfo_C2_1.2 routing_C2_1.2" vType="motorcycle" speedFactor="1.02" vaporized=""/>
    <tripinfo id="A2_1.4" depart="337.55" departLane="-793339796#2_1" departPos="2.30" departPosLat="0.00" departSpeed="27.38" departDelay="0.00" arrival="391.00" arrivalLane="-440471861#0_2" arrivalPos="31.49" arrivalPosLat="0.00" arrivalSpeed="27.38" duration="53.45" routeLength="1084.69" waitingTime="8.05" waitingCount="1" stopTime="0.00" timeLoss="13.82" rerouteNo="1" devices="tripinfo_A2_1.4 routing_A2_1.4" vType="motorcycle" speedFactor="0.99" vaporized=""/>
    <tripinfo id="A2_1.2" depart="261.45" departLane="-793339796#2_1" departPos="2.30" departPosLat="0.00" departSpeed="21.47" departDelay="0.00" arrival="395.95" arrivalLane="-440471861#0_2" arrivalPos="31.49" arrivalPosLat="0.00" arrivalSpeed="21.40" duration="134.50" routeLength="1084.69" waitingTime="77.35" waitingCount="1" stopTime="0.00" timeLoss="83.95" rerouteNo="1" devices="tripinfo_A2_1.2 routing_A2_1.2" vType="motorcycle" speedFactor="0.77" vaporized=""/>
    <tripinfo id="A2_1.1" depart="252.35" departLane="-793339796#2_1" departPos="5.10" departPosLat="0.00" departSpeed="24.00" departDelay="0.00" arrival="398.30" arrivalLane="-440471861#0_1" arrivalPos="31.49" arrivalPosLat="0.00" arrivalSpeed="23.97" duration="145.95" routeLength="1081.89" waitingTime="84.40" waitingCount="2" stopTime="0.00" timeLoss="100.84" rerouteNo="1" devices="tripinfo_A2_1.1 routing_A2_1.1" vType="car" speedFactor="0.86" vaporized=""/>
    <tripinfo id="A2_1.3" depart="265.25" departLane="-793339796#2_1" departPos="8.10" departPosLat="0.00" departSpeed="23.68" departDelay="0.00" arrival="403.35" arrivalLane="-440471861#0_1" arrivalPos="31.49" arrivalPosLat="0.00" arrivalSpeed="27.75" duration="138.10" routeLength="1078.89" waitingTime="71.25" waitingCount="1" stopTime="0.00" timeLoss="99.26" rerouteNo="1" devices="tripinfo_A2_1.3 routing_A2_1.3" vType="jeep" speedFactor="1.00" vaporized=""/>
    <personinfo id="pf_2.10" depart="360.00" type="ped" speedFactor="0.93" duration="49.10" waitingTime="22.95" timeLoss="25.56" traveltime="49.10">
        <walk depart="360.00" departPos="15.72" arrival="409.10" arrivalPos="4.00" duration="49.10" routeLength="30.33" timeLoss="25.56" maxSpeed="1.29" waitingTime="22.95"/>
    </personinfo>
    <tripinfo id="D1_1.5" depart="226.35" departLane="140483224#1_1" departPos="5.10" departPosLat="0.00" departSpeed="27.67" departDelay="0.00" arrival="410.05" arrivalLane="-793339796#2_2" arrivalPos="83.13" arrivalPosLat="0.00" arrivalSpeed="27.63" duration="183.70" routeLength="1648.45" waitingTime="94.55" waitingCount="2" stopTime="0.00" timeLoss="121.77" rerouteNo="1" devices="tripinfo_D1_1.5 routing_D1_1.5" vType="car" speedFactor="1.00" vaporized=""/>
    <tripinfo id="D2_1.0" depart="290.30" departLane="140483224#1_1" departPos="5.10" departPosLat="0.00" departSpeed="24.33" departDelay="0.00" arrival="414.45" arrivalLane="-145894807#0_1" arrivalPos="260.97" arrivalPosLat="0.00" arrivalSpeed="7.28" duration="124.15" routeLength="1109.85" waitingTime="12.70" waitingCount="2" stopTime="0.00" timeLoss="24.43" rerouteNo="1" devices="tripinfo_D2_1.0 routing_D2_1.0" vType="car" speedFactor="0.88" vaporized=""/>
    <tripinfo id="A1_1.1" depart="322.60" departLane="-793339796#2_1" departPos="2.30" departPosLat="0.00" departSpeed="28.23" departDelay="0.00" arrival="416.00" arrivalLane="-145894807#0_1" arrivalPos="260.97" arrivalPosLat="0.00" arrivalSpeed="8.33" duration="93.40" routeLength="1060.25" waitingTime="0.00" waitingCount="0" stopTime="0.00" timeLoss="5.23" rerouteNo="1" devices="tripinfo_A1_1.1 routing_A1_1.1" vType="motorcycle" speedFactor="1.02" vaporized=""/>
    <personinfo id="pf_3.0" depart="0.00" type="ped" speedFactor="0.95" duration="418.45" waitingTime="17.35" timeLoss="57.37" traveltime="418.45">
        <walk depart="0.00" departPos="25.00" arrival="113.80" arrivalPos="18.88" duration="113.80" routeLength="135.02" timeLoss="11.19" maxSpeed="1.32" waitingTime="0.00"/>
        <walk depart="113.80" departPos="18.88" arrival="418.45" arrivalPos="22.75" duration="304.65" routeLength="340.11" timeLoss="46.18" maxSpeed="1.32" waitingTime="17.35"/>
    </personinfo>
    <personinfo id="pf_1.3" depart="108.00" type="ped" speedFactor="1.08" duration="312.90" waitingTime="70.45" timeLoss="94.67" traveltime="312.90">
        <walk depart="108.00" departPos="25.00" arrival="420.90" arrivalPos="4.00" duration="312.90" routeLength="328.17" timeLoss="94.67" maxSpeed="1.50" waitingTime="70.45"/>
    </personinfo>
    <tripinfo id="A3_1.2" depart="227.15" departLane="-793339796#2_1" departPos="7.20" departPosLat="0.00" departSpeed="26.14" departDelay="0.00" arrival="422.50" arrivalLane="-140483224#1_2" arrivalPos="64.17" arrivalPosLat="0.00" arrivalSpeed="26.11" duration="195.35" routeLength="1079.61" waitingTime="116.75" waitingCount="3" stopTime="0.00" timeLoss="152.45" rerouteNo="1" devices="tripinfo_A3_1.2 routing_A3_1.2" vType="truck" speedFactor="0.94" vaporized=""/>
    <tripinfo id="A3_1.3" depart="256.80" departLane="-793339796#2_1" departPos="7.20" departPosLat="0.00" departSpeed="26.77" departDelay="0.00" arrival="422.60" arrivalLane="-140483224#1_1" arrivalPos="64.17" arrivalPosLat="-0.00" arrivalSpeed="26.75" duration="165.80" routeLength="1079.61" waitingTime="73.40" waitingCount="4" stopTime="0.00" timeLoss="123.91" rerouteNo="1" devices="tripinfo_A3_1.3 routing_A3_1.3" vType="truck" speedFactor="0.96" vaporized=""/>
    <personinfo id="pf_1.4" depart="144.00" type="ped" speedFactor="1.03" duration="279.80" waitingTime="24.55" timeLoss="50.47" traveltime="279.80">
        <walk depart="144.00" departPos="25.00" arrival="423.80" arrivalPos="4.00" duration="279.80" routeLength="328.17" timeLoss="50.47" maxSpeed="1.43" waitingTime="24.55"/>
    </personinfo>
    <tripinfo id="A3_1.4" depart="289.75" departLane="-793339796#2_1" departPos="7.20" departPosLat="0.00" departSpeed="28.00" departDelay="0.00" arrival="423.85" arrivalLane="-140483224#1_1" arrivalPos="64.17" arrivalPosLat="0.00" arrivalSpeed="27.61" duration="134.10" routeLength="1079.61" waitingTime="54.80" waitingCount="2" stopTime="0.00" timeLoss="94.06" rerouteNo="1" devices="tripinfo_A3_1.4 routing_A3_1.4" vType="truck" speedFactor="1.01" vaporized=""/>
    <tripinfo id="A1_1.2" depart="329.65" departLane="-793339796#2_1" departPos="8.10" departPosLat="0.00" departSpeed="27.78" departDelay="0.00" arrival="423.90" arrivalLane="-145894807#0_1" arrivalPos="260.97" arrivalPosLat="0.00" arrivalSpeed="8.33" duration="94.25" routeLength="1054.45" waitingTime="0.00" waitingCount="0" stopTime="0.00" timeLoss="4.84" rerouteNo="1" devices="tripinfo_A1_1.2 routing_A1_1.2" vType="jeep" speedFactor="1.00" vaporized=""/>
    <personinfo id="pf_2.11" depart="396.00" type="ped" speedFactor="0.87" duration="28.00" waitingTime="0.00" timeLoss="2.78" traveltime="28.00">
        <walk depart="396.00" departPos="15.72" arrival="424.00" arrivalPos="4.00" duration="28.00" routeLength="30.33" timeLoss="2.78" maxSpeed="1.20" waitingTime="0.00"/>
    </personinfo>
    <personinfo id="pf_1.2" depart="72.00" type="ped" speedFactor="1.01" duration="352.95" waitingTime="93.30" timeLoss="119.10" traveltime="352.95">
        <walk depart="72.00" departPos="25.00" arrival="424.95" arrivalPos="4.00" duration="352.95" routeLength="328.17" timeLoss="119.10" maxSpeed="1.40" waitingTime="93.30"/>
    </personinfo>
    <tripinfo id="D1_1.4" depart="178.90" departLane="140483224#1_1" departPos="8.10" departPosLat="0.00" departSpeed="27.78" departDelay="0.00" arrival="424.95" arrivalLane="-793339796#2_2" arrivalPos="83.13" arrivalPosLat="0.00" arrivalSpeed="24.43" duration="246.05" routeLength="1645.45" waitingTime="135.25" waitingCount="3" stopTime="0.00" timeLoss="184.49" rerouteNo="1" devices="tripinfo_D1_1.4 routing_D1_1.4" vType="jeep" speedFactor="1.00" vaporized=""/>
    <personinfo id="pf_1.1" depart="36.00" type="ped" speedFactor="0.94" duration="393.80" waitingTime="114.05" timeLoss="141.98" traveltime="393.80">
        <walk depart="36.00" departPos="25.00" arrival="429.80" arrivalPos="4.00" duration="393.80" routeLength="328.17" timeLoss="141.98" maxSpeed="1.30" waitingTime="114.05"/>
    </personinfo>
    <tripinfo id="A1_1.3" depart="342.40" departLane="-793339796#2_1" departPos="5.10" departPosLat="0.00" departSpeed="24.66" departDelay="0.00" arrival="446.45" arrivalLane="-145894807#0_1" arrivalPos="260.97" arrivalPosLat="0.00" arrivalSpeed="7.35" duration="104.05" routeLength="1057.45" waitingTime="0.00" waitingCount="0" stopTime="0.00" timeLoss="3.22" rerouteNo="1" devices="tripinfo_A1_1.3 routing_A1_1.3" vType="car" speedFactor="0.89" vaporized=""/>
    <tripinfo id="B2_1.2" depart="198.55" departLane="-361257727#0_1" departPos="8.10" departPosLat="0.00" departSpeed="8.33" departDelay="0.00" arrival="452.95" arrivalLane="-440471861#0_2" arrivalPos="31.49" arrivalPosLat="0.00" arrivalSpeed="27.75" duration="254.40" routeLength="1411.29" waitingTime="116.35" waitingCount="1" stopTime="0.00" timeLoss="135.77" rerouteNo="1" devices="tripinfo_B2_1.2 routing_B2_1.2" vType="jeep" speedFactor="1.00" vaporized=""/>
    <tripinfo id="A1_1.4" depart="383.20" departLane="-793339796#2_1" departPos="5.10" departPosLat="0.00" departSpeed="32.18" departDelay="0.00" arrival="464.60" arrivalLane="-145894807#0_1" arrivalPos="260.97" arrivalPosLat="0.00" arrivalSpeed="9.60" duration="81.40" routeLength="1057.45" waitingTime="0.00" waitingCount="0" stopTime="0.00" timeLoss="4.14" rerouteNo="1" devices="tripinfo_A1_1.4 routing_A1_1.4" vType="car" speedFactor="1.16" vaporized=""/>
    <personinfo id="pf_3.2" depart="72.00" type="ped" speedFactor="1.03" duration="402.65" waitingTime="35.75" timeLoss="72.13" traveltime="402.65">
        <walk depart="72.00" departPos="25.00" arrival="176.30" arrivalPos="18.88" duration="104.30" routeLength="135.02" timeLoss="10.38" maxSpeed="1.44" waitingTime="0.00"/>
        <walk depart="176.30" departPos="18.88" arrival="474.65" arrivalPos="22.75" duration="298.35" routeLength="340.11" timeLoss="61.75" maxSpeed="1.44" waitingTime="35.75"/>
    </personinfo>
    <personinfo id="pf_2.12" depart="432.00" type="ped" speedFactor="1.10" duration="44.90" waitingTime="22.80" timeLoss="25.02" traveltime="44.90">
        <walk depart="432.00" departPos="15.72" arrival="476.90" arrivalPos="4.00" duration="44.90" routeLength="30.33" timeLoss="25.02" maxSpeed="1.53" waitingTime="22.80"/>
    </personinfo>
    <personinfo id="pf_2.13" depart="468.00" type="ped" speedFactor="1.01" duration="24.05" waitingTime="0.00" timeLoss="2.40" traveltime="24.05">
        <walk depart="468.00" departPos="15.72" arrival="492.05" arrivalPos="4.00" duration="24.05" routeLength="30.33" timeLoss="2.40" maxSpeed="1.40" waitingTime="0.00"/>
    </personinfo>
    <tripinfo id="B3_1.0" depart="241.30" departLane="-361257727#0_1" departPos="5.10" departPosLat="0.00" departSpeed="9.73" departDelay="0.00" arrival="497.10" arrivalLane="-140483224#1_2" arrivalPos="64.17" arrivalPosLat="0.00" arrivalSpeed="32.40" duration="255.80" routeLength="1427.09" waitingTime="128.85" waitingCount="2" stopTime="0.00" timeLoss="153.73" rerouteNo="1" devices="tripinfo_B3_1.0 routing_B3_1.0" vType="car" speedFactor="1.17" vaporized=""/>
    <tripinfo id="A1_1.5" depart="411.25" departLane="-793339796#2_1" departPos="7.20" departPosLat="0.00" departSpeed="25.92" departDelay="0.00" arrival="511.50" arrivalLane="-145894807#0_1" arrivalPos="260.97" arrivalPosLat="0.00" arrivalSpeed="7.74" duration="100.25" routeLength="1055.35" waitingTime="0.00" waitingCount="0" stopTime="0.00" timeLoss="4.36" rerouteNo="1" devices="tripinfo_A1_1.5 routing_A1_1.5" vType="truck" speedFactor="0.93" vaporized=""/>
    <tripinfo id="B1_1.1" depart="381.65" departLane="-361257727#0_1" departPos="5.10" departPosLat="0.00" departSpeed="10.11" departDelay="0.00" arrival="511.65" arrivalLane="-793339796#2_2" arrivalPos="83.13" arrivalPosLat="0.00" arrivalSpeed="33.70" duration="130.00" routeLength="1915.62" waitingTime="0.00" waitingCount="0" stopTime="0.00" timeLoss="18.99" rerouteNo="1" devices="tripinfo_B1_1.1 routing_B1_1.1" vType="car" speedFactor="1.21" vaporized=""/>
    <personinfo id="pf_3.1" depart="36.00" type="ped" speedFactor="0.87" duration="476.70" waitingTime="42.35" timeLoss="85.70" traveltime="476.70">
        <walk depart="36.00" departPos="25.00" arrival="163.65" arrivalPos="18.88" duration="127.65" routeLength="135.02" timeLoss="16.54" maxSpeed="1.22" waitingTime="4.10"/>
        <walk depart="163.65" departPos="18.88" arrival="512.70" arrivalPos="22.75" duration="349.05" routeLength="340.11" timeLoss="69.16" maxSpeed="1.22" waitingTime="38.25"/>
    </personinfo>
    <personinfo id="pf_3.3" depart="108.00" type="ped" speedFactor="1.11" duration="405.05" waitingTime="27.50" timeLoss="96.47" traveltime="405.05">
        <walk depart="108.00" departPos="25.00" arrival="232.65" arrivalPos="18.88" duration="124.65" routeLength="135.02" timeLoss="36.96" maxSpeed="1.54" waitingTime="27.10"/>
        <walk depart="232.65" departPos="18.88" arrival="513.05" arrivalPos="22.75" duration="280.40" routeLength="340.11" timeLoss="59.51" maxSpeed="1.54" waitingTime="0.40"/>
    </personinfo>