<?xml version="1.0" encoding="UTF-8"?>

<!-- generated on 2025-11-17 14:04:56 by Eclipse SUMO sumo Version 1.24.0
<sumoConfiguration xmlns:xsi="http://www.w3.org/2001/XMLSchema-instance" xsi:noNamespaceSchemaLocation="http://sumo.dlr.de/xsd/sumoConfiguration.xsd">

    <input>
        <net-file value="Olivarez_traci\network/map.net.xml"/>
        <route-files value="Olivarez_traci\demand/activitygen-example.trips.rou.xml"/>
        <additional-files value="Olivarez_traci\additionals/map.poly.xml,Olivarez_traci\ additionals/detectors.add.xml"/>
    </input>

    <output>
        <tripinfo-output value="Olivarez_traci\output_DDPG\SD_DDPG_one_trafficlight_trips.xml"/>
        <statistic-output value="Olivarez_traci\output_DDPG\SD_DDPG_one_trafficlight_stats.xml"/>
    </output>

    <time>
        <begin value="0"/>
        <end value="10800"/>
        <step-length value="0.05"/>
    </time>

    <processing>
        <lateral-resolution value="0.1"/>
    </processing>

    <report>
        <no-warnings value="true"/>
    </report>

    <traci_server>
        <remote-port value="55783"/>
    </traci_server>

    <gui_only>
        <delay value="0"/>
    </gui_only>

</sumoConfiguration>
-->

<tripinfos xmlns:xsi="http://www.w3.org/2001/XMLSchema-instance" xsi:noNamespaceSchemaLocation="http://sumo.dlr.de/xsd/tripinfo_file.xsd">
    <tripinfo id="blStaRosaToPacitab1:1" depart="0.00" departLane="-793339796#3_1" departPos="0.00" departPosLat="0.00" departSpeed="0.00" departDelay="0.00" arrival="0.05" arrivalLane="-793339796#3_1" arrivalPos="0.00" arrivalPosLat="0.00" arrivalSpeed="0.00" duration="0.05" routeLength="0.00" waitingTime="0.05" waitingCount="1" stopTime="0.00" timeLoss="0.05" rerouteNo="1" devices="tripinfo_blStaRosaToPacitab1:1 routing_blStaRosaToPacitab1:1" vType="bus" speedFactor="1.00" vaporized=""/>
    <tripinfo id="blPacitaToStaRosab1:1" depart="0.00" departLane="440471861#0_1" departPos="0.00" departPosLat="0.00" departSpeed="0.00" departDelay="0.00" arrival="0.05" arrivalLane="440471861#0_1" arrivalPos="0.00" arrivalPosLat="0.00" arrivalSpeed="0.00" duration="0.05" routeLength="0.00" waitingTime="0.05" waitingCount="1" stopTime="0.00" timeLoss="0.05" rerouteNo="1" devices="tripinfo_blPacitaToStaRosab1:1 routing_blPacitaToStaRosab1:1" vType="bus" speedFactor="1.00" vaporized=""/>
    <tripinfo id="blGMACARtoBinanb1:1" depart="0.00" departLane="140483224#0_1" departPos="0.00" departPosLat="0.00" departSpeed="0.00" departDelay="0.00" arrival="0.05" arrivalLane="140483224#0_1" arrivalPos="0.00" arrivalPosLat="0.00" arrivalSpeed="0.00" duration="0.05" routeLength="0.00" waitingTime="0.05" waitingCount="1" stopTime="0.00" timeLoss="0.05" rerouteNo="1" devices="tripinfo_blGMACARtoBinanb1:1 routing_blGMACARtoBinanb1:1" vType="bus" speedFactor="1.00" vaporized=""/>
    <tripinfo id="blGMACARtoBinanb2:15" depart="0.00" departLane="-145894807#0_1" departPos="260.90" departPosLat="0.00" departSpeed="0.00" departDelay="0.00" arrival="0.05" arrivalLane="-145894807#0_1" arrivalPos="260.90" arrivalPosLat="0.00" arrivalSpeed="0.00" duration="0.05" routeLength="0.00" waitingTime="0.05" waitingCount="1" stopTime="0.00" timeLoss="0.05" rerouteNo="1" devices="tripinfo_blGMACARtoBinanb2:15 routing_blGMACARtoBinanb2:15" vType="bus" speedFactor="1.00" vaporized=""/>
    <tripinfo id="blBinantoGMACARb1:1" depart="0.00" departLane="361257727#0_1" departPos="0.00" departPosLat="0.00" departSpeed="0.00" departDelay="0.00" arrival="0.05" arrivalLane="361257727#0_1" arrivalPos="0.00" arrivalPosLat="0.00" arrivalSpeed="0.00" duration="0.05" routeLength="0.00" waitingTime="0.05" waitingCount="1" stopTime="0.00" timeLoss="0.05" rerouteNo="1" devices="tripinfo_blBinantoGMACARb1:1 routing_blBinantoGMACARb1:1" vType="bus" speedFactor="1.00" vaporized=""/>
    <tripinfo id="blBinantoGMACARb2:15" depart="0.00" departLane="-140483224#0_1" departPos="1075.80" departPosLat="0.00" departSpeed="0.00" departDelay="0.00" arrival="0.05" arrivalLane="-140483224#0_1" arrivalPos="1075.80" arrivalPosLat="0.00" arrivalSpeed="0.00" duration="0.05" routeLength="0.00" waitingTime="0.05" waitingCount="1" stopTime="0.00" timeLoss="0.05" rerouteNo="1" devices="tripinfo_blBinantoGMACARb2:15 routing_blBinantoGMACARb2:15" vType="bus" speedFactor="1.00" vaporized=""/>
    <tripinfo id="blGMAtoOlib2:15" depart="0.00" departLane="1119486610#0_1" departPos="0.00" departPosLat="0.00" departSpeed="0.00" departDelay="0.00" arrival="0.05" arrivalLane="1119486610#0_1" arrivalPos="0.00" arrivalPosLat="0.00" arrivalSpeed="0.00" duration="0.05" routeLength="0.00" waitingTime="0.05" waitingCount="1" stopTime="0.00" timeLoss="0.05" rerouteNo="1" devices="tripinfo_blGMAtoOlib2:15 routing_blGMAtoOlib2:15" vType="bus" speedFactor="1.00" vaporized=""/>
    <tripinfo id="blOlitoGMAb1:1" depart="0.00" departLane="894583375_0" departPos="0.00" departPosLat="0.00" departSpeed="0.00" departDelay="0.00" arrival="0.05" arrivalLane="894583375_0" arrivalPos="0.00" arrivalPosLat="0.00" arrivalSpeed="0.00" duration="0.05" routeLength="0.00" waitingTime="0.05" waitingCount="1" stopTime="0.00" timeLoss="0.05" rerouteNo="1" devices="tripinfo_blOlitoGMAb1:1 routing_blOlitoGMAb1:1" vType="bus" speedFactor="1.00" vaporized=""/>
    <tripinfo id="blCarmonatoOlib2:15" depart="0.00" departLane="1119486607_0" departPos="0.00" departPosLat="0.00" departSpeed="0.00" departDelay="0.00" arrival="0.05" arrivalLane="1119486607_0" arrivalPos="0.00" arrivalPosLat="0.00" arrivalSpeed="0.00" duration="0.05" routeLength="0.00" waitingTime="0.05" waitingCount="1" stopTime="0.00" timeLoss="0.05" rerouteNo="1" devices="tripinfo_blCarmonatoOlib2:15 routing_blCarmonatoOlib2:15" vType="bus" speedFactor="1.00" vaporized=""/>
    <tripinfo id="blGMAtoOlib1:1" depart="0.05" departLane="140483224#0_1" departPos="0.00" departPosLat="0.00" departSpeed="0.00" departDelay="0.05" arrival="0.10" arrivalLane="140483224#0_1" arrivalPos="0.00" arrivalPosLat="0.00" arrivalSpeed="0.00" duration="0.05" routeLength="0.00" waitingTime="0.05" waitingCount="1" stopTime="0.00" timeLoss="0.05" rerouteNo="1" devices="tripinfo_blGMAtoOlib1:1 routing_blGMAtoOlib1:1" vType="bus" speedFactor="1.00" vaporized=""/>
    <tripinfo id="blOlitoGMAb2:15" depart="0.05" departLane="-140483224#0_1" departPos="1075.80" departPosLat="0.00" departSpeed="0.00" departDelay="0.05" arrival="0.10" arrivalLane="-140483224#0_1" arrivalPos="1075.80" arrivalPosLat="0.00" arrivalSpeed="0.00" duration="0.05" routeLength="0.00" waitingTime="0.05" waitingCount="1" stopTime="0.00" timeLoss="0.05" rerouteNo="1" devices="tripinfo_blOlitoGMAb2:15 routing_blOlitoGMAb2:15" vType="bus" speedFactor="1.00" vaporized=""/>
    <tripinfo id="blOlitoCarmonab1:1" depart="0.05" departLane="1119486607_0" departPos="0.00" departPosLat="0.00" departSpeed="0.00" departDelay="0.05" arrival="0.10" arrivalLane="1119486607_0" arrivalPos="0.00" arrivalPosLat="0.00" arrivalSpeed="0.00" duration="0.05" routeLength="0.00" waitingTime="0.05" waitingCount="1" stopTime="0.00" timeLoss="0.05" rerouteNo="1" devices="tripinfo_blOlitoCarmonab1:1 routing_blOlitoCarmonab1:1" vType="bus" speedFactor="1.00" vaporized=""/>
    <tripinfo id="blCarmonatoOlib1:1" depart="0.10" departLane="140483224#0_1" departPos="0.00" departPosLat="0.00" departSpeed="0.00" departDelay="0.10" arrival="0.15" arrivalLane="140483224#0_1" arrivalPos="0.00" arrivalPosLat="0.00" arrivalSpeed="0.00" duration="0.05" routeLength="0.00" waitingTime="0.05" waitingCount="1" stopTime="0.00" timeLoss="0.05" rerouteNo="1" devices="tripinfo_blCarmonatoOlib1:1 routing_blCarmonatoOlib1:1" vType="bus" speedFactor="1.00" vaporized=""/>
    <tripinfo id="blOlitoCarmonab2:15" depart="0.10" departLane="-140483224#0_1" departPos="1075.80" departPosLat="0.00" departSpeed="0.00" departDelay="0.10" arrival="0.15" arrivalLane="-140483224#0_1" arrivalPos="1075.80" arrivalPosLat="0.00" arrivalSpeed="0.00" duration="0.05" routeLength="0.00" waitingTime="0.05" waitingCount="1" stopTime="0.00" timeLoss="0.05" rerouteNo="1" devices="tripinfo_blOlitoCarmonab2:15 routing_blOlitoCarmonab2:15" vType="bus" speedFactor="1.00" vaporized=""/>
    <tripinfo id="blStaRosaToPacitab2:15" depart="0.00" departLane="-793339796#1_1" departPos="0.00" departPosLat="0.00" departSpeed="0.00" departDelay="0.00" arrival="76.05" arrivalLane="-440471861#0_1" arrivalPos="31.40" arrivalPosLat="0.00" arrivalSpeed="0.95" duration="76.05" routeLength="994.34" waitingTime="3.30" waitingCount="1" stopTime="0.00" timeLoss="40.26" rerouteNo="1" devices="tripinfo_blStaRosaToPacitab2:15 routing_blStaRosaToPacitab2:15" vType="bus" speedFactor="1.00" vaporized=""/>
    <tripinfo id="blPacitaToStaRosab2:15" depart="0.00" departLane="440471861#5_1" departPos="40.00" departPosLat="0.00" departSpeed="0.00" departDelay="0.00" arrival="184.35" arrivalLane="793339796#3_1" arrivalPos="232.20" arrivalPosLat="0.00" arrivalSpeed="0.92" duration="184.35" routeLength="1057.91" waitingTime="110.95" waitingCount="1" stopTime="0.00" timeLoss="146.27" rerouteNo="1" devices="tripinfo_blPacitaToStaRosab2:15 routing_blPacitaToStaRosab2:15" vType="bus" speedFactor="1.00" vaporized=""/>
    <tripinfo id="blStaRosaToPacitab3:1" depart="300.00" departLane="-793339796#3_1" departPos="0.00" departPosLat="0.00" departSpeed="0.00" departDelay="0.00" arrival="300.05" arrivalLane="-793339796#3_1" arrivalPos="0.00" arrivalPosLat="0.00" arrivalSpeed="0.00" duration="0.05" routeLength="0.00" waitingTime="0.05" waitingCount="1" stopTime="0.00" timeLoss="0.05" rerouteNo="1" devices="tripinfo_blStaRosaToPacitab3:1 routing_blStaRosaToPacitab3:1" vType="bus" speedFactor="1.00" vaporized=""/>
    <tripinfo id="blPacitaToStaRosab3:1" depart="300.00" departLane="440471861#0_1" departPos="0.00" departPosLat="0.00" departSpeed="0.00" departDelay="0.00" arrival="300.05" arrivalLane="440471861#0_1" arrivalPos="0.00" arrivalPosLat="0.00" arrivalSpeed="0.00" duration="0.05" routeLength="0.00" waitingTime="0.05" waitingCount="1" stopTime="0.00" timeLoss="0.05" rerouteNo="1" devices="tripinfo_blPacitaToStaRosab3:1 routing_blPacitaToStaRosab3:1" vType="bus" speedFactor="1.00" vaporized=""/>
    <tripinfo id="randUni15:1" depart="288.00" departLane="-894523077_1" departPos="28.65" departPosLat="0.00" departSpeed="0.00" departDelay="0.00" arrival="390.60" arrivalLane="-1298056754_1" arrivalPos="22.67" arrivalPosLat="-0.00" arrivalSpeed="0.96" duration="102.60" routeLength="892.80" waitingTime="33.30" waitingCount="2" stopTime="0.00" timeLoss="60.06" rerouteNo="1" devices="tripinfo_randUni15:1 routing_randUni15:1" vType="random" speedFactor="1.06" vaporized=""/>
    <tripinfo id="blPacitaToStaRosab4:15" depart="300.00" departLane="440471861#5_1" departPos="40.00" departPosLat="0.00" departSpeed="0.00" departDelay="0.00" arrival="395.60" arrivalLane="793339796#3_1" arrivalPos="232.20" arrivalPosLat="-0.00" arrivalSpeed="0.85" duration="95.60" routeLength="1057.91" waitingTime="18.60" waitingCount="1" stopTime="0.00" timeLoss="57.52" rerouteNo="1" devices="tripinfo_blPacitaToStaRosab4:15 routing_blPacitaToStaRosab4:15" vType="bus" speedFactor="1.00" vaporized=""/>
    <tripinfo id="blStaRosaToPacitab4:15" depart="300.00" departLane="-793339796#1_1" departPos="0.00" departPosLat="0.00" departSpeed="0.00" departDelay="0.00" arrival="445.00" arrivalLane="-440471861#0_1" arrivalPos="31.40" arrivalPosLat="0.00" arrivalSpeed="0.82" duration="145.00" routeLength="994.34" waitingTime="63.30" waitingCount="2" stopTime="0.00" timeLoss="109.21" rerouteNo="1" devices="tripinfo_blStaRosaToPacitab4:15 routing_blStaRosaToPacitab4:15" vType="bus" speedFactor="1.00" vaporized=""/>
    <tripinfo id="blStaRosaToPacitab5:1" depart="600.00" departLane="-793339796#3_1" departPos="0.00" departPosLat="0.00" departSpeed="0.00" departDelay="0.00" arrival="600.05" arrivalLane="-793339796#3_1" arrivalPos="0.00" arrivalPosLat="0.00" arrivalSpeed="0.00" duration="0.05" routeLength="0.00" waitingTime="0.05" waitingCount="1" stopTime="0.00" timeLoss="0.05" rerouteNo="1" devices="tripinfo_blStaRosaToPacitab5:1 routing_blStaRosaToPacitab5:1" vType="bus" speedFactor="1.00" vaporized=""/>
    <tripinfo id="blPacitaToStaRosab5:1" depart="600.00" departLane="440471861#0_1" departPos="0.00" departPosLat="0.00" departSpeed="0.00" departDelay="0.00" arrival="600.05" arrivalLane="440471861#0_1" arrivalPos="0.00" arrivalPosLat="0.00" arrivalSpeed="0.00" duration="0.05" routeLength="0.00" waitingTime="0.05" waitingCount="1" stopTime="0.00" timeLoss="0.05" rerouteNo="1" devices="tripinfo_blPacitaToStaRosab5:1 routing_blPacitaToStaRosab5:1" vType="bus" speedFactor="1.00" vaporized=""/>
    <tripinfo id="blGMACARtoBinanb3:1" depart="600.00" departLane="140483224#0_1" departPos="0.00" departPosLat="0.00" departSpeed="0.00" departDelay="0.00" arrival="600.05" arrivalLane="140483224#0_1" arrivalPos="0.00" arrivalPosLat="0.00" arrivalSpeed="0.00" duration="0.05" routeLength="0.00" waitingTime="0.05" waitingCount="1" stopTime="0.00" timeLoss="0.05" rerouteNo="1" devices="tripinfo_blGMACARtoBinanb3:1 routing_blGMACARtoBinanb3:1" vType="bus" speedFactor="1.00" vaporized=""/>
    <tripinfo id="blGMACARtoBinanb4:15" depart="600.00" departLane="-145894807#0_1" departPos="260.90" departPosLat="0.00" departSpeed="0.00" departDelay="0.00" arrival="600.05" arrivalLane="-145894807#0_1" arrivalPos="260.90" arrivalPosLat="0.00" arrivalSpeed="0.00" duration="0.05" routeLength="0.00" waitingTime="0.05" waitingCount="1" stopTime="0.00" timeLoss="0.05" rerouteNo="1" devices="tripinfo_blGMACARtoBinanb4:15 routing_blGMACARtoBinanb4:15" vType="bus" speedFactor="1.00" vaporized=""/>
    <tripinfo id="blBinantoGMACARb3:1" depart="600.00" departLane="361257727#0_1" departPos="0.00" departPosLat="0.00" departSpeed="0.00" departDelay="0.00" arrival="600.05" arrivalLane="361257727#0_1" arrivalPos="0.00" arrivalPosLat="0.00" arrivalSpeed="0.00" duration="0.05" routeLength="0.00" waitingTime="0.05" waitingCount="1" stopTime="0.00" timeLoss="0.05" rerouteNo="1" devices="tripinfo_blBinantoGMACARb3:1 routing_blBinantoGMACARb3:1" vType="bus" speedFactor="1.00" vaporized=""/>
    <tripinfo id="blBinantoGMACARb4:15" depart="600.00" departLane="-140483224#0_1" departPos="1075.80" departPosLat="0.00" departSpeed="0.00" departDelay="0.00" arrival="600.05" arrivalLane="-140483224#0_1" arrivalPos="1075.80" arrivalPosLat="0.00" arrivalSpeed="0.00" duration="0.05" routeLength="0.00" waitingTime="0.05" waitingCount="1" stopTime="0.00" timeLoss="0.05" rerouteNo="1" devices="tripinfo_blBinantoGMACARb4:15 routing_blBinantoGMACARb4:15" vType="bus" speedFactor="1.00" vaporized=""/>
    <tripinfo id="blStaRosaToPacitab6:15" depart="600.00" departLane="-793339796#1_1" departPos="0.00" departPosLat="0.00" departSpeed="0.00" departDelay="0.00" arrival="660.30" arrivalLane="-440471861#0_1" arrivalPos="31.40" arrivalPosLat="0.00" arrivalSpeed="0.85" duration="60.30" routeLength="994.34" waitingTime="0.00" waitingCount="0" stopTime="0.00" timeLoss="24.51" rerouteNo="1" devices="tripinfo_blStaRosaToPacitab6:15 routing_blStaRosaToPacitab6:15" vType="bus" speedFactor="1.00" vaporized=""/>
    <tripinfo id="blPacitaToStaRosab6:15" depart="600.00" departLane="440471861#5_1" departPos="40.00" departPosLat="0.00" departSpeed="0.00" departDelay="0.00" arrival="744.35" arrivalLane="793339796#3_1" arrivalPos="232.20" arrivalPosLat="0.00" arrivalSpeed="0.92" duration="144.35" routeLength="1057.91" waitingTime="61.75" waitingCount="1" stopTime="0.00" timeLoss="106.27" rerouteNo="1" devices="tripinfo_blPacitaToStaRosab6:15 routing_blPacitaToStaRosab6:15" vType="bus" speedFactor="1.00" vaporized=""/>
    <tripinfo id="blStaRosaToPacitab7:1" depart="900.00" departLane="-793339796#3_1" departPos="0.00" departPosLat="0.00" departSpeed="0.00" departDelay="0.00" arrival="900.05" arrivalLane="-793339796#3_1" arrivalPos="0.00" arrivalPosLat="0.00" arrivalSpeed="0.00" duration="0.05" routeLength="0.00" waitingTime="0.05" waitingCount="1" stopTime="0.00" timeLoss="0.05" rerouteNo="1" devices="tripinfo_blStaRosaToPacitab7:1 routing_blStaRosaToPacitab7:1" vType="bus" speedFactor="1.00" vaporized=""/>
    <tripinfo id="blPacitaToStaRosab7:1" depart="900.00" departLane="440471861#0_1" departPos="0.00" departPosLat="0.00" departSpeed="0.00" departDelay="0.00" arrival="900.05" arrivalLane="440471861#0_1" arrivalPos="0.00" arrivalPosLat="0.00" arrivalSpeed="0.00" duration="0.05" routeLength="0.00" waitingTime="0.05" waitingCount="1" stopTime="0.00" timeLoss="0.05" rerouteNo="1" devices="tripinfo_blPacitaToStaRosab7:1 routing_blPacitaToStaRosab7:1" vType="bus" speedFactor="1.00" vaporized=""/>
    <tripinfo id="blStaRosaToPacitab8:15" depart="900.00" departLane="-793339796#1_1" departPos="0.00" departPosLat="0.00" departSpeed="0.00" departDelay="0.00" arrival="995.65" arrivalLane="-440471861#0_1" arrivalPos="31.40" arrivalPosLat="0.00" arrivalSpeed="0.98" duration="95.65" routeLength="994.34" waitingTime="23.10" waitingCount="1" stopTime="0.00" timeLoss="59.86" rerouteNo="1" devices="tripinfo_blStaRosaToPacitab8:15 routing_blStaRosaToPacitab8:15" vType="bus" speedFactor="1.00" vaporized=""/>
    <tripinfo id="blPacitaToStaRosab8:15" depart="900.00" departLane="440471861#5_1" departPos="40.00" departPosLat="0.00" departSpeed="0.00" departDelay="0.00" arrival="1104.00" arrivalLane="793339796#3_1" arrivalPos="232.20" arrivalPosLat="0.00" arrivalSpeed="0.91" duration="204.00" routeLength="1057.91" waitingTime="130.55" waitingCount="1" stopTime="0.00" timeLoss="165.92" rerouteNo="1" devices="tripinfo_blPacitaToStaRosab8:15 routing_blPacitaToStaRosab8:15" vType="bus" speedFactor="1.00" vaporized=""/>
    <tripinfo id="blStaRosaToPacitab9:1" depart="1200.00" departLane="-793339796#3_1" departPos="0.00" departPosLat="0.00" departSpeed="0.00" departDelay="0.00" arrival="1200.05" arrivalLane="-793339796#3_1" arrivalPos="0.00" arrivalPosLat="0.00" arrivalSpeed="0.00" duration="0.05" routeLength="0.00" waitingTime="0.05" waitingCount="1" stopTime="0.00" timeLoss="0.05" rerouteNo="1" devices="tripinfo_blStaRosaToPacitab9:1 routing_blStaRosaToPacitab9:1" vType="bus" speedFactor="1.00" vaporized=""/>
    <tripinfo id="blPacitaToStaRosab9:1" depart="1200.00" departLane="440471861#0_1" departPos="0.00" departPosLat="0.00" departSpeed="0.00" departDelay="0.00" arrival="1200.05" arrivalLane="440471861#0_1" arrivalPos="0.00" arrivalPosLat="0.00" arrivalSpeed="0.00" duration="0.05" routeLength="0.00" waitingTime="0.05" waitingCount="1" stopTime="0.00" timeLoss="0.05" rerouteNo="1" devices="tripinfo_blPacitaToStaRosab9:1 routing_blPacitaToStaRosab9:1" vType="bus" speedFactor="1.00" vaporized=""/>
    <tripinfo id="blGMACARtoBinanb5:1" depart="1200.00" departLane="140483224#0_1" departPos="0.00" departPosLat="0.00" departSpeed="0.00" departDelay="0.00" arrival="1200.05" arrivalLane="140483224#0_1" arrivalPos="0.00" arrivalPosLat="0.00" arrivalSpeed="0.00" duration="0.05" routeLength="0.00" waitingTime="0.05" waitingCount="1" stopTime="0.00" timeLoss="0.05" rerouteNo="1" devices="tripinfo_blGMACARtoBinanb5:1 routing_blGMACARtoBinanb5:1" vType="bus" speedFactor="1.00" vaporized=""/>
    <tripinfo id="blGMACARtoBinanb6:15" depart="1200.00" departLane="-145894807#0_1" departPos="260.90" departPosLat="0.00" departSpeed="0.00" departDelay="0.00" arrival="1200.05" arrivalLane="-145894807#0_1" arrivalPos="260.90" arrivalPosLat="0.00" arrivalSpeed="0.00" duration="0.05" routeLength="0.00" waitingTime="0.05" waitingCount="1" stopTime="0.00" timeLoss="0.05" rerouteNo="1" devices="tripinfo_blGMACARtoBinanb6:15 routing_blGMACARtoBinanb6:15" vType="bus" speedFactor="1.00" vaporized=""/>
    <tripinfo id="blBinantoGMACARb5:1" depart="1200.00" departLane="361257727#0_1" departPos="0.00" departPosLat="0.00" departSpeed="0.00" departDelay="0.00" arrival="1200.05" arrivalLane="361257727#0_1" arrivalPos="0.00" arrivalPosLat="0.00" arrivalSpeed="0.00" duration="0.05" routeLength="0.00" waitingTime="0.05" waitingCount="1" stopTime="0.00" timeLoss="0.05" rerouteNo="1" devices="tripinfo_blBinantoGMACARb5:1 routing_blBinantoGMACARb5:1" vType="bus" speedFactor="1.00" vaporized=""/>
    <tripinfo id="blBinantoGMACARb6:15" depart="1200.00" departLane="-140483224#0_1" departPos="1075.80" departPosLat="0.00" departSpeed="0.00" departDelay="0.00" arrival="1200.05" arrivalLane="-140483224#0_1" arrivalPos="1075.80" arrivalPosLat="0.00" arrivalSpeed="0.00" duration="0.05" routeLength="0.00" waitingTime="0.05" waitingCount="1" stopTime="0.00" timeLoss="0.05" rerouteNo="1" devices="tripinfo_blBinantoGMACARb6:15 routing_blBinantoGMACARb6:15" vType="bus" speedFactor="1.00" vaporized=""/>
    <tripinfo id="blGMAtoOlib4:15" depart="1200.00" departLane="1119486610#0_1" departPos="0.00" departPosLat="0.00" departSpeed="0.00" departDelay="0.00" arrival="1200.05" arrivalLane="1119486610#0_1" arrivalPos="0.00" arrivalPosLat="0.00" arrivalSpeed="0.00" duration="0.05" routeLength="0.00" waitingTime="0.05" waitingCount="1" stopTime="0.00" timeLoss="0.05" rerouteNo="1" devices="tripinfo_blGMAtoOlib4:15 routing_blGMAtoOlib4:15" vType="bus" speedFactor="1.00" vaporized=""/>
    <tripinfo id="blOlitoGMAb3:1" depart="1200.00" departLane="894583375_0" departPos="0.00" departPosLat="0.00" departSpeed="0.00" departDelay="0.00" arrival="1200.05" arrivalLane="894583375_0" arrivalPos="0.00" arrivalPosLat="0.00" arrivalSpeed="0.00" duration="0.05" routeLength="0.00" waitingTime="0.05" waitingCount="1" stopTime="0.00" timeLoss="0.05" rerouteNo="1" devices="tripinfo_blOlitoGMAb3:1 routing_blOlitoGMAb3:1" vType="bus" speedFactor="1.00" vaporized=""/>
    <tripinfo id="blCarmonatoOlib4:15" depart="1200.00" departLane="1119486607_0" departPos="0.00" departPosLat="0.00" departSpeed="0.00" departDelay="0.00" arrival="1200.05" arrivalLane="1119486607_0" arrivalPos="0.00" arrivalPosLat="0.00" arrivalSpeed="0.00" duration="0.05" routeLength="0.00" waitingTime="0.05" waitingCount="1" stopTime="0.00" timeLoss="0.05" rerouteNo="1" devices="tripinfo_blCarmonatoOlib4:15 routing_blCarmonatoOlib4:15" vType="bus" speedFactor="1.00" vaporized=""/>
    <tripinfo id="blGMAtoOlib3:1" depart="1200.05" departLane="140483224#0_1" departPos="0.00" departPosLat="0.00" departSpeed="0.00" departDelay="0.05" arrival="1200.10" arrivalLane="140483224#0_1" arrivalPos="0.00" arrivalPosLat="0.00" arrivalSpeed="0.00" duration="0.05" routeLength="0.00" waitingTime="0.05" waitingCount="1" stopTime="0.00" timeLoss="0.05" rerouteNo="1" devices="tripinfo_blGMAtoOlib3:1 routing_blGMAtoOlib3:1" vType="bus" speedFactor="1.00" vaporized=""/>
    <tripinfo id="blOlitoGMAb4:15" depart="1200.05" departLane="-140483224#0_1" departPos="1075.80" departPosLat="0.00" departSpeed="0.00" departDelay="0.05" arrival="1200.10" arrivalLane="-140483224#0_1" arrivalPos="1075.80" arrivalPosLat="0.00" arrivalSpeed="0.00" duration="0.05" routeLength="0.00" waitingTime="0.05" waitingCount="1" stopTime="0.00" timeLoss="0.05" rerouteNo="1" devices="tripinfo_blOlitoGMAb4:15 routing_blOlitoGMAb4:15" vType="bus" speedFactor="1.00" vaporized=""/>
    <tripinfo id="blOlitoCarmonab3:1" depart="1200.05" departLane="1119486607_0" departPos="0.00" departPosLat="0.00" departSpeed="0.00" departDelay="0.05" arrival="1200.10" arrivalLane="1119486607_0" arrivalPos="0.00" arrivalPosLat="0.00" arrivalSpeed="0.00" duration="0.05" routeLength="0.00" waitingTime="0.05" waitingCount="1" stopTime="0.00" timeLoss="0.05" rerouteNo="1" devices="tripinfo_blOlitoCarmonab3:1 routing_blOlitoCarmonab3:1" vType="bus" speedFactor="1.00" vaporized=""/>
    <tripinfo id="blCarmonatoOlib3:1" depart="1200.10" departLane="140483224#0_1" departPos="0.00" departPosLat="0.00" departSpeed="0.00" departDelay="0.10" arrival="1200.15" arrivalLane="140483224#0_1" arrivalPos="0.00" arrivalPosLat="0.00" arrivalSpeed="0.00" duration="0.05" routeLength="0.00" waitingTime="0.05" waitingCount="1" stopTime="0.00" timeLoss="0.05" rerouteNo="1" devices="tripinfo_blCarmonatoOlib3:1 routing_blCarmonatoOlib3:1" vType="bus" speedFactor="1.00" vaporized=""/>
    <tripinfo id="blOlitoCarmonab4:15" depart="1200.10" departLane="-140483224#0_1" departPos="1075.80" departPosLat="0.00" departSpeed="0.00" departDelay="0.10" arrival="1200.15" arrivalLane="-140483224#0_1" arrivalPos="1075.80" arrivalPosLat="0.00" arrivalSpeed="0.00" duration="0.05" routeLength="0.00" waitingTime="0.05" waitingCount="1" stopTime="0.00" timeLoss="0.05" rerouteNo="1" devices="tripinfo_blOlitoCarmonab4:15 routing_blOlitoCarmonab4:15" vType="bus" speedFactor="1.00" vaporized=""/>
    <tripinfo id="blPacitaToStaRosab10:15" depart="1200.00" departLane="440471861#5_1" departPos="40.00" departPosLat="0.00" departSpeed="0.00" departDelay="0.00" arrival="1305.55" arrivalLane="793339796#3_1" arrivalPos="232.20" arrivalPosLat="0.00" arrivalSpeed="0.94" duration="105.55" routeLength="1057.91" waitingTime="21.70" waitingCount="2" stopTime="0.00" timeLoss="67.47" rerouteNo="1" devices="tripinfo_blPacitaToStaRosab10:15 routing_blPacitaToStaRosab10:15" vType="bus" speedFactor="1.00" vaporized=""/>
    <tripinfo id="randUni55:1" depart="1210.00" departLane="93590607#2_1" departPos="13.27" departPosLat="0.00" departSpeed="0.00" departDelay="0.00" arrival="1307.25" arrivalLane="-440471861#3_2" arrivalPos="58.55" arrivalPosLat="0.00" arrivalSpeed="0.97" duration="97.25" routeLength="865.19" waitingTime="34.15" waitingCount="2" stopTime="0.00" timeLoss="57.74" rerouteNo="1" devices="tripinfo_randUni55:1 routing_randUni55:1" vType="random" speedFactor="0.94" vaporized=""/>
    <tripinfo id="blStaRosaToPacitab10:15" depart="1200.00" departLane="-793339796#1_1" departPos="0.00" departPosLat="0.00" departSpeed="0.00" departDelay="0.00" arrival="1364.30" arrivalLane="-440471861#0_1" arrivalPos="31.40" arrivalPosLat="0.00" arrivalSpeed="0.83" duration="164.30" routeLength="994.34" waitingTime="82.50" waitingCount="2" stopTime="0.00" timeLoss="128.51" rerouteNo="1" devices="tripinfo_blStaRosaToPacitab10:15 routing_blStaRosaToPacitab10:15" vType="bus" speedFactor="1.00" vaporized=""/>
    <tripinfo id="randUni120:1" depart="1374.00" departLane="894517879_1" departPos="20.89" departPosLat="0.00" departSpeed="0.00" departDelay="0.00" arrival="1402.05" arrivalLane="-140483224#7_2" arrivalPos="15.41" arrivalPosLat="0.00" arrivalSpeed="0.87" duration="28.05" routeLength="378.99" waitingTime="0.00" waitingCount="0" stopTime="0.00" timeLoss="11.86" rerouteNo="1" devices="tripinfo_randUni120:1 routing_randUni120:1" vType="random" speedFactor="1.01" vaporized=""/>
    <tripinfo id="blStaRosaToPacitab11:1" depart="1500.00" departLane="-793339796#3_1" departPos="0.00" departPosLat="0.00" departSpeed="0.00" departDelay="0.00" arrival="1500.05" arrivalLane="-793339796#3_1" arrivalPos="0.00" arrivalPosLat="0.00" arrivalSpeed="0.00" duration="0.05" routeLength="0.00" waitingTime="0.05" waitingCount="1" stopTime="0.00" timeLoss="0.05" rerouteNo="1" devices="tripinfo_blStaRosaToPacitab11:1 routing_blStaRosaToPacitab11:1" vType="bus" speedFactor="1.00" vaporized=""/>
    <tripinfo id="blPacitaToStaRosab11:1" depart="1500.00" departLane="440471861#0_1" departPos="0.00" departPosLat="0.00" departSpeed="0.00" departDelay="0.00" arrival="1500.05" arrivalLane="440471861#0_1" arrivalPos="0.00" arrivalPosLat="0.00" arrivalSpeed="0.00" duration="0.05" routeLength="0.00" waitingTime="0.05" waitingCount="1" stopTime="0.00" timeLoss="0.05" rerouteNo="1" devices="tripinfo_blPacitaToStaRosab11:1 routing_blPacitaToStaRosab11:1" vType="bus" speedFactor="1.00" vaporized=""/>
    <tripinfo id="blStaRosaToPacitab12:15" depart="1500.00" departLane="-793339796#1_1" departPos="0.00" departPosLat="0.00" departSpeed="0.00" departDelay="0.00" arrival="1579.80" arrivalLane="-440471861#0_1" arrivalPos="31.40" arrivalPosLat="0.00" arrivalSpeed="0.90" duration="79.80" routeLength="994.34" waitingTime="7.00" waitingCount="1" stopTime="0.00" timeLoss="44.01" rerouteNo="1" devices="tripinfo_blStaRosaToPacitab12:15 routing_blStaRosaToPacitab12:15" vType="bus" speedFactor="1.00" vaporized=""/>
    <tripinfo id="blPacitaToStaRosab12:15" depart="1500.00" departLane="440471861#5_1" departPos="40.00" departPosLat="0.00" departSpeed="0.00" departDelay="0.00" arrival="1656.90" arrivalLane="793339796#3_1" arrivalPos="232.20" arrivalPosLat="0.00" arrivalSpeed="0.83" duration="156.90" routeLength="1057.91" waitingTime="83.70" waitingCount="1" stopTime="0.00" timeLoss="118.82" rerouteNo="1" devices="tripinfo_blPacitaToStaRosab12:15 routing_blPacitaToStaRosab12:15" vType="bus" speedFactor="1.00" vaporized=""/>
    <tripinfo id="blStaRosaToPacitab13:1" depart="1800.00" departLane="-793339796#3_1" departPos="0.00" departPosLat="0.00" departSpeed="0.00" departDelay="0.00" arrival="1800.05" arrivalLane="-793339796#3_1" arrivalPos="0.00" arrivalPosLat="0.00" arrivalSpeed="0.00" duration="0.05" routeLength="0.00" waitingTime="0.05" waitingCount="1" stopTime="0.00" timeLoss="0.05" rerouteNo="1" devices="tripinfo_blStaRosaToPacitab13:1 routing_blStaRosaToPacitab13:1" vType="bus" speedFactor="1.00" vaporized=""/>
    <tripinfo id="blPacitaToStaRosab13:1" depart="1800.00" departLane="440471861#0_1" departPos="0.00" departPosLat="0.00" departSpeed="0.00" departDelay="0.00" arrival="1800.05" arrivalLane="440471861#0_1" arrivalPos="0.00" arrivalPosLat="0.00" arrivalSpeed="0.00" duration="0.05" routeLength="0.00" waitingTime="0.05" waitingCount="1" stopTime="0.00" timeLoss="0.05" rerouteNo="1" devices="tripinfo_blPacitaToStaRosab13:1 routing_blPacitaToStaRosab13:1" vType="bus" speedFactor="1.00" vaporized=""/>