<?xml version="1.0" encoding="UTF-8"?>

<!-- generated on 2026-02-12 20:50:33 by Eclipse SUMO sumo Version 1.24.0
<sumoConfiguration xmlns:xsi="http://www.w3.org/2001/XMLSchema-instance" xsi:noNamespaceSchemaLocation="http://sumo.dlr.de/xsd/sumoConfiguration.xsd">

    <input>
        <net-file value="Olivarez_traci/network/map1.net.xml"/>
        <route-files value="Olivarez_traci/demand/flows_slow_traffic.rou.xml"/>
        <additional-files value="Olivarez_traci/additionals/map.poly.xml,Olivarez_traci/ additionals/detectors.add.xml"/>
    </input>

    <output>
        <tripinfo-output value="Olivarez_traci\output_DDPG\slowGlobal_SD_DDPG_trips.xml"/>
        <statistic-output value="Olivarez_traci\output_DDPG\slowGlobal_SD_DDPG_stats.xml"/>
    </output>

    <time>
        <begin value="0"/>
        <end value="10800"/>
        <step-length value="0.1"/>
    </time>

    <processing>
        <lateral-resolution value="0.1"/>
        <collision.action value="none"/>
        <collision.check-junctions value="false"/>
        <collision.mingap-factor value="0"/>
    </processing>

    <report>
        <no-warnings value="true"/>
    </report>

    <traci_server>
        <remote-port value="58937"/>
    </traci_server>

    <gui_only>
        <delay value="0"/>
    </gui_only>

</sumoConfiguration>
-->

<tripinfos xmlns:xsi="http://www.w3.org/2001/XMLSchema-instance" xsi:noNamespaceSchemaLocation="http://sumo.dlr.de/xsd/tripinfo_file.xsd">
    <personinfo id="pf_2.0" depart="0.00" type="ped" speedFactor="0.88" duration="28.10" waitingTime="0.00" timeLoss="2.92" traveltime="28.10">
        <walk depart="0.00" departPos="15.09" arrival="28.10" arrivalPos="3.44" duration="28.10" routeLength="30.72" timeLoss="2.92" maxSpeed="1.22" waitingTime="0.00"/>
    </personinfo>
    <tripinfo id="D3_1.0" depart="15.30" departLane="140483224#1_2" departPos="5.10" departPosLat="0.00" departSpeed="28.45" departDelay="0.00" arrival="59.30" arrivalLane="-440471861#0_2" arrivalPos="31.52" arrivalPosLat="0.00" arrivalSpeed="28.34" duration="44.00" routeLength="1067.97" waitingTime="0.00" waitingCount="0" stopTime="0.00" timeLoss="4.92" rerouteNo="1" devices="tripinfo_D3_1.0 routing_D3_1.0" vType="car" speedFactor="1.02" vaporized=""/>
    <tripinfo id="A2_1.0" depart="8.90" departLane="-793339796#2_1" departPos="5.10" departPosLat="0.00" departSpeed="29.35" departDelay="0.00" arrival="72.40" arrivalLane="-440471861#0_1" arrivalPos="31.52" arrivalPosLat="0.00" arrivalSpeed="29.30" duration="63.50" routeLength="1081.27" waitingTime="10.00" waitingCount="2" stopTime="0.00" timeLoss="26.65" rerouteNo="1" devices="tripinfo_A2_1.0 routing_A2_1.0" vType="car" speedFactor="1.06" vaporized=""/>
    <tripinfo id="A2_1.1" depart="16.40" departLane="-793339796#2_1" departPos="8.10" departPosLat="0.00" departSpeed="27.78" departDelay="0.00" arrival="81.40" arrivalLane="-440471861#0_2" arrivalPos="31.52" arrivalPosLat="0.00" arrivalSpeed="27.77" duration="65.00" routeLength="1078.27" waitingTime="5.40" waitingCount="1" stopTime="0.00" timeLoss="26.10" rerouteNo="1" devices="tripinfo_A2_1.1 routing_A2_1.1" vType="jeep" speedFactor="1.00" vaporized=""/>
    <tripinfo id="D1_1.0" depart="1.20" departLane="140483224#1_1" departPos="5.10" departPosLat="0.00" departSpeed="27.86" departDelay="0.00" arrival="89.30" arrivalLane="-793339796#2_2" arrivalPos="82.50" arrivalPosLat="0.00" arrivalSpeed="27.84" duration="88.10" routeLength="1648.38" waitingTime="7.20" waitingCount="1" stopTime="0.00" timeLoss="26.67" rerouteNo="1" devices="tripinfo_D1_1.0 routing_D1_1.0" vType="car" speedFactor="1.00" vaporized=""/>
    <personinfo id="pf_2.3" depart="67.50" type="ped" speedFactor="1.13" duration="25.30" waitingTime="3.40" timeLoss="5.67" traveltime="25.30">
        <walk depart="67.50" departPos="15.09" arrival="92.80" arrivalPos="3.44" duration="25.30" routeLength="30.72" timeLoss="5.67" maxSpeed="1.57" waitingTime="3.40"/>
    </personinfo>
    <personinfo id="pf_2.1" depart="22.50" type="ped" speedFactor="1.08" duration="71.20" waitingTime="48.20" timeLoss="50.67" traveltime="71.20">
        <walk depart="22.50" departPos="15.09" arrival="93.70" arrivalPos="3.44" duration="71.20" routeLength="30.72" timeLoss="50.67" maxSpeed="1.50" waitingTime="48.20"/>
    </personinfo>
    <personinfo id="pf_2.2" depart="45.00" type="ped" speedFactor="0.99" duration="49.80" waitingTime="25.10" timeLoss="27.52" traveltime="49.80">
        <walk depart="45.00" departPos="15.09" arrival="94.80" arrivalPos="3.44" duration="49.80" routeLength="30.72" timeLoss="27.52" maxSpeed="1.38" waitingTime="25.10"/>
    </personinfo>
    <tripinfo id="C3_1.1" depart="22.80" departLane="440471861#0_1" departPos="2.30" departPosLat="0.00" departSpeed="25.10" departDelay="0.00" arrival="101.00" arrivalLane="-140483224#1_1" arrivalPos="64.04" arrivalPosLat="-0.00" arrivalSpeed="24.88" duration="78.20" routeLength="1055.58" waitingTime="21.50" waitingCount="2" stopTime="0.00" timeLoss="34.64" rerouteNo="1" devices="tripinfo_C3_1.1 routing_C3_1.1" vType="motorcycle" speedFactor="0.90" vaporized=""/>
    <tripinfo id="C3_1.0" depart="8.60" departLane="440471861#0_1" departPos="5.10" departPosLat="0.00" departSpeed="28.99" departDelay="0.00" arrival="102.90" arrivalLane="-140483224#1_2" arrivalPos="64.04" arrivalPosLat="0.00" arrivalSpeed="28.95" duration="94.30" routeLength="1052.78" waitingTime="41.20" waitingCount="2" stopTime="0.00" timeLoss="56.60" rerouteNo="1" devices="tripinfo_C3_1.0 routing_C3_1.0" vType="car" speedFactor="1.04" vaporized=""/>
    <tripinfo id="C3_1.2" depart="47.20" departLane="440471861#0_1" departPos="5.10" departPosLat="0.00" departSpeed="30.59" departDelay="0.00" arrival="103.60" arrivalLane="-140483224#1_1" arrivalPos="64.04" arrivalPosLat="-0.00" arrivalSpeed="30.58" duration="56.40" routeLength="1052.78" waitingTime="0.00" waitingCount="0" stopTime="0.00" timeLoss="20.77" rerouteNo="1" devices="tripinfo_C3_1.2 routing_C3_1.2" vType="car" speedFactor="1.10" vaporized=""/>
    <tripinfo id="C1_1.0" depart="35.30" departLane="440471861#0_1" departPos="5.10" departPosLat="0.00" departSpeed="25.38" departDelay="0.00" arrival="120.60" arrivalLane="-793339796#2_2" arrivalPos="82.50" arrivalPosLat="0.00" arrivalSpeed="25.33" duration="85.30" routeLength="1653.99" waitingTime="0.00" waitingCount="0" stopTime="0.00" timeLoss="18.94" rerouteNo="1" devices="tripinfo_C1_1.0 routing_C1_1.0" vType="car" speedFactor="0.91" vaporized=""/>
    <personinfo id="pf_4.0" depart="0.00" type="ped" speedFactor="1.03" duration="121.60" waitingTime="6.10" timeLoss="17.74" traveltime="121.60">
        <walk depart="0.00" departPos="25.00" arrival="55.90" arrivalPos="29.11" duration="55.90" routeLength="72.15" timeLoss="5.39" maxSpeed="1.43" waitingTime="0.00"/>
        <walk depart="55.90" departPos="29.11" arrival="121.60" arrivalPos="29.05" duration="65.70" routeLength="76.20" timeLoss="12.35" maxSpeed="1.43" waitingTime="6.10"/>
    </personinfo>
    <tripinfo id="A2_1.2" depart="41.40" departLane="-793339796#2_1" departPos="5.10" departPosLat="0.00" departSpeed="28.78" departDelay="0.00" arrival="125.30" arrivalLane="-440471861#0_1" arrivalPos="31.52" arrivalPosLat="0.00" arrivalSpeed="28.77" duration="83.90" routeLength="1081.27" waitingTime="35.20" waitingCount="1" stopTime="0.00" timeLoss="46.33" rerouteNo="1" devices="tripinfo_A2_1.2 routing_A2_1.2" vType="car" speedFactor="1.04" vaporized=""/>
    <tripinfo id="A3_1.0" depart="31.50" departLane="-793339796#2_2" departPos="5.10" departPosLat="0.00" departSpeed="27.03" departDelay="0.50" arrival="126.20" arrivalLane="-140483224#1_2" arrivalPos="64.04" arrivalPosLat="0.00" arrivalSpeed="27.02" duration="94.70" routeLength="1080.94" waitingTime="44.10" waitingCount="1" stopTime="0.00" timeLoss="53.13" rerouteNo="1" devices="tripinfo_A3_1.0 routing_A3_1.0" vType="car" speedFactor="0.97" vaporized=""/>
    <tripinfo id="C2_1.0" depart="40.30" departLane="440471861#0_2" departPos="12.10" departPosLat="0.00" departSpeed="27.78" departDelay="0.00" arrival="128.20" arrivalLane="-145894807#0_1" arrivalPos="260.95" arrivalPosLat="0.00" arrivalSpeed="8.31" duration="87.90" routeLength="1075.06" waitingTime="0.00" waitingCount="0" stopTime="0.00" timeLoss="2.87" rerouteNo="1" devices="tripinfo_C2_1.0 routing_C2_1.0" vType="bus" speedFactor="1.00" vaporized=""/>
    <tripinfo id="C2_1.1" depart="54.60" departLane="440471861#0_2" departPos="5.10" departPosLat="0.00" departSpeed="34.31" departDelay="0.00" arrival="130.60" arrivalLane="-145894807#0_1" arrivalPos="260.95" arrivalPosLat="0.00" arrivalSpeed="10.26" duration="76.00" routeLength="1082.06" waitingTime="0.00" waitingCount="0" stopTime="0.00" timeLoss="6.90" rerouteNo="1" devices="tripinfo_C2_1.1 routing_C2_1.1" vType="car" speedFactor="1.24" vaporized=""/>
    <tripinfo id="A2_1.3" depart="54.50" departLane="-793339796#2_1" departPos="7.20" departPosLat="0.00" departSpeed="25.39" departDelay="0.40" arrival="134.10" arrivalLane="-440471861#0_1" arrivalPos="31.52" arrivalPosLat="0.00" arrivalSpeed="25.34" duration="79.60" routeLength="1079.17" waitingTime="16.80" waitingCount="1" stopTime="0.00" timeLoss="37.07" rerouteNo="1" devices="tripinfo_A2_1.3 routing_A2_1.3" vType="truck" speedFactor="0.91" vaporized=""/>
    <tripinfo id="A3_1.1" depart="61.00" departLane="-793339796#2_1" departPos="12.10" departPosLat="0.00" departSpeed="27.78" departDelay="0.00" arrival="134.10" arrivalLane="-140483224#1_2" arrivalPos="64.04" arrivalPosLat="0.00" arrivalSpeed="27.76" duration="73.10" routeLength="1073.94" waitingTime="6.60" waitingCount="1" stopTime="0.00" timeLoss="32.92" rerouteNo="1" devices="tripinfo_A3_1.1 routing_A3_1.1" vType="bus" speedFactor="1.00" vaporized=""/>
    <personinfo id="pf_4.1" depart="22.50" type="ped" speedFactor="1.04" duration="114.50" waitingTime="0.90" timeLoss="12.17" traveltime="114.50">
        <walk depart="22.50" departPos="25.00" arrival="78.60" arrivalPos="29.11" duration="56.10" routeLength="72.15" timeLoss="6.33" maxSpeed="1.45" waitingTime="0.90"/>
        <walk depart="78.60" departPos="29.11" arrival="137.00" arrivalPos="29.05" duration="58.40" routeLength="76.20" timeLoss="5.84" maxSpeed="1.45" waitingTime="0.00"/>
    </personinfo>
    <tripinfo id="B2_1.0" depart="13.90" departLane="-361257727#0_1" departPos="5.10" departPosLat="0.00" departSpeed="7.98" departDelay="0.00" arrival="141.60" arrivalLane="-440471861#0_1" arrivalPos="31.52" arrivalPosLat="-0.00" arrivalSpeed="26.59" duration="127.70" routeLength="1397.68" waitingTime="0.00" waitingCount="0" stopTime="0.00" timeLoss="5.57" rerouteNo="1" devices="tripinfo_B2_1.0 routing_B2_1.0" vType="car" speedFactor="0.96" vaporized=""/>
    <personinfo id="pf_2.4" depart="90.00" type="ped" speedFactor="1.05" duration="55.50" waitingTime="32.20" timeLoss="34.47" traveltime="55.50">
        <walk depart="90.00" departPos="15.09" arrival="145.50" arrivalPos="3.44" duration="55.50" routeLength="30.72" timeLoss="34.47" maxSpeed="1.46" waitingTime="32.20"/>
    </personinfo>
    <personinfo id="pf_2.5" depart="112.50" type="ped" speedFactor="0.91" duration="35.60" waitingTime="8.60" timeLoss="11.41" traveltime="35.60">
        <walk depart="112.50" departPos="15.09" arrival="148.10" arrivalPos="3.44" duration="35.60" routeLength="30.72" timeLoss="11.41" maxSpeed="1.27" waitingTime="8.60"/>
    </personinfo>
    <tripinfo id="D1_1.1" depart="47.90" departLane="140483224#1_1" departPos="7.20" departPosLat="0.00" departSpeed="26.91" departDelay="0.00" arrival="150.80" arrivalLane="-793339796#2_2" arrivalPos="82.50" arrivalPosLat="0.00" arrivalSpeed="25.46" duration="102.90" routeLength="1646.28" waitingTime="8.90" waitingCount="1" stopTime="0.00" timeLoss="39.24" rerouteNo="1" devices="tripinfo_D1_1.1 routing_D1_1.1" vType="truck" speedFactor="0.97" vaporized=""/>
    <tripinfo id="D2_1.0" depart="67.30" departLane="140483224#1_1" departPos="5.10" departPosLat="0.00" departSpeed="29.37" departDelay="0.00" arrival="153.40" arrivalLane="-145894807#0_1" arrivalPos="260.95" arrivalPosLat="0.00" arrivalSpeed="8.71" duration="86.10" routeLength="1092.76" waitingTime="0.00" waitingCount="0" stopTime="0.00" timeLoss="5.41" rerouteNo="1" devices="tripinfo_D2_1.0 routing_D2_1.0" vType="car" speedFactor="1.06" vaporized=""/>
    <personinfo id="pf_4.2" depart="45.00" type="ped" speedFactor="1.08" duration="110.80" waitingTime="0.70" timeLoss="11.91" traveltime="110.80">
        <walk depart="45.00" departPos="25.00" arrival="98.50" arrivalPos="29.11" duration="53.50" routeLength="72.15" timeLoss="5.41" maxSpeed="1.50" waitingTime="0.00"/>
        <walk depart="98.50" departPos="29.11" arrival="155.80" arrivalPos="29.05" duration="57.30" routeLength="76.20" timeLoss="6.51" maxSpeed="1.50" waitingTime="0.70"/>
    </personinfo>
    <tripinfo id="C3_1.3" depart="87.10" departLane="440471861#0_1" departPos="7.20" departPosLat="0.00" departSpeed="29.74" departDelay="0.00" arrival="161.80" arrivalLane="-140483224#1_2" arrivalPos="64.04" arrivalPosLat="0.00" arrivalSpeed="29.68" duration="74.70" routeLength="1050.68" waitingTime="4.50" waitingCount="2" stopTime="0.00" timeLoss="38.06" rerouteNo="1" devices="tripinfo_C3_1.3 routing_C3_1.3" vType="truck" speedFactor="1.07" vaporized=""/>
    <tripinfo id="D1_1.2" depart="74.50" departLane="140483224#1_1" departPos="7.20" departPosLat="0.00" departSpeed="27.47" departDelay="0.00" arrival="162.80" arrivalLane="-793339796#2_2" arrivalPos="82.50" arrivalPosLat="0.00" arrivalSpeed="25.37" duration="88.30" routeLength="1646.28" waitingTime="0.00" waitingCount="0" stopTime="0.00" timeLoss="26.02" rerouteNo="1" devices="tripinfo_D1_1.2 routing_D1_1.2" vType="truck" speedFactor="0.99" vaporized=""/>
    <tripinfo id="D1_1.3" depart="92.30" departLane="140483224#1_1" departPos="5.10" departPosLat="0.00" departSpeed="33.02" departDelay="0.00" arrival="164.10" arrivalLane="-793339796#2_2" arrivalPos="82.50" arrivalPosLat="0.00" arrivalSpeed="27.44" duration="71.80" routeLength="1648.38" waitingTime="0.00" waitingCount="0" stopTime="0.00" timeLoss="19.96" rerouteNo="1" devices="tripinfo_D1_1.3 routing_D1_1.3" vType="car" speedFactor="1.19" vaporized=""/>
    <tripinfo id="C1_1.2" depart="63.70" departLane="440471861#0_1" departPos="2.30" departPosLat="0.00" departSpeed="25.73" departDelay="0.00" arrival="170.70" arrivalLane="-793339796#2_2" arrivalPos="82.50" arrivalPosLat="0.00" arrivalSpeed="25.71" duration="107.00" routeLength="1656.79" waitingTime="23.60" waitingCount="1" stopTime="0.00" timeLoss="41.41" rerouteNo="1" devices="tripinfo_C1_1.2 routing_C1_1.2" vType="tricycle" speedFactor="0.93" vaporized=""/>
    <tripinfo id="C1_1.3" depart="82.10" departLane="440471861#0_1" departPos="5.10" departPosLat="0.00" departSpeed="24.54" departDelay="0.00" arrival="174.90" arrivalLane="-793339796#2_2" arrivalPos="82.50" arrivalPosLat="0.00" arrivalSpeed="24.52" duration="92.80" routeLength="1653.99" waitingTime="0.00" waitingCount="0" stopTime="0.00" timeLoss="24.18" rerouteNo="1" devices="tripinfo_C1_1.3 routing_C1_1.3" vType="car" speedFactor="0.88" vaporized=""/>
    <tripinfo id="C1_1.1" depart="57.10" departLane="440471861#0_1" departPos="8.10" departPosLat="0.00" departSpeed="27.78" departDelay="0.00" arrival="183.80" arrivalLane="-793339796#2_2" arrivalPos="82.50" arrivalPosLat="0.00" arrivalSpeed="24.72" duration="126.70" routeLength="1650.99" waitingTime="29.80" waitingCount="1" stopTime="0.00" timeLoss="66.16" rerouteNo="1" devices="tripinfo_C1_1.1 routing_C1_1.1" vType="jeep" speedFactor="1.00" vaporized=""/>
    <personinfo id="pf_4.3" depart="67.50" type="ped" speedFactor="0.99" duration="119.30" waitingTime="0.00" timeLoss="11.73" traveltime="119.30">
        <walk depart="67.50" departPos="25.00" arrival="125.60" arrivalPos="29.11" duration="58.10" routeLength="72.15" timeLoss="5.78" maxSpeed="1.38" waitingTime="0.00"/>
        <walk depart="125.60" departPos="29.11" arrival="186.80" arrivalPos="29.05" duration="61.20" routeLength="76.20" timeLoss="5.94" maxSpeed="1.38" waitingTime="0.00"/>
    </personinfo>
    <tripinfo id="B2_1.1" depart="62.00" departLane="-361257727#0_1" departPos="8.10" departPosLat="0.00" departSpeed="8.33" departDelay="0.00" arrival="198.50" arrivalLane="-440471861#0_1" arrivalPos="31.52" arrivalPosLat="-0.00" arrivalSpeed="27.74" duration="136.50" routeLength="1394.68" waitingTime="0.30" waitingCount="1" stopTime="0.00" timeLoss="19.80" rerouteNo="1" devices="tripinfo_B2_1.1 routing_B2_1.1" vType="jeep" speedFactor="1.00" vaporized=""/>
    <personinfo id="pf_2.7" depart="157.50" type="ped" speedFactor="1.03" duration="43.60" waitingTime="19.40" timeLoss="22.12" traveltime="43.60">
        <walk depart="157.50" departPos="15.09" arrival="201.10" arrivalPos="3.44" duration="43.60" routeLength="30.72" timeLoss="22.12" maxSpeed="1.43" waitingTime="19.40"/>
    </personinfo>
    <personinfo id="pf_2.6" depart="135.00" type="ped" speedFactor="1.00" duration="66.40" waitingTime="42.00" timeLoss="44.38" traveltime="66.40">
        <walk depart="135.00" departPos="15.09" arrival="201.40" arrivalPos="3.44" duration="66.40" routeLength="30.72" timeLoss="44.38" maxSpeed="1.39" waitingTime="42.00"/>
    </personinfo>
    <personinfo id="pf_2.8" depart="180.00" type="ped" speedFactor="0.98" duration="24.90" waitingTime="0.00" timeLoss="2.42" traveltime="24.90">
        <walk depart="180.00" departPos="15.09" arrival="204.90" arrivalPos="3.44" duration="24.90" routeLength="30.72" timeLoss="2.42" maxSpeed="1.37" waitingTime="0.00"/>
    </personinfo>
    <tripinfo id="D1_1.5" depart="117.10" departLane="140483224#1_1" departPos="8.10" departPosLat="0.00" departSpeed="27.78" departDelay="0.00" arrival="206.40" arrivalLane="-793339796#2_2" arrivalPos="82.50" arrivalPosLat="0.00" arrivalSpeed="24.72" duration="89.30" routeLength="1645.38" waitingTime="0.00" waitingCount="0" stopTime="0.00" timeLoss="27.75" rerouteNo="1" devices="tripinfo_D1_1.5 routing_D1_1.5" vType="jeep" speedFactor="1.00" vaporized=""/>
    <tripinfo id="D2_1.1" depart="93.70" departLane="140483224#1_1" departPos="5.10" departPosLat="0.00" departSpeed="24.64" departDelay="0.00" arrival="209.20" arrivalLane="-145894807#0_1" arrivalPos="260.95" arrivalPosLat="0.00" arrivalSpeed="7.27" duration="115.50" routeLength="1092.76" waitingTime="12.30" waitingCount="1" stopTime="0.00" timeLoss="19.27" rerouteNo="1" devices="tripinfo_D2_1.1 routing_D2_1.1" vType="car" speedFactor="0.89" vaporized=""/>
    <personinfo id="pf_4.4" depart="90.00" type="ped" speedFactor="0.98" duration="123.10" waitingTime="2.20" timeLoss="14.33" traveltime="123.10">
        <walk depart="90.00" departPos="25.00" arrival="148.80" arrivalPos="29.11" duration="58.80" routeLength="72.15" timeLoss="5.90" maxSpeed="1.36" waitingTime="0.00"/>
        <walk depart="148.80" departPos="29.11" arrival="213.10" arrivalPos="29.05" duration="64.30" routeLength="76.20" timeLoss="8.43" maxSpeed="1.36" waitingTime="2.20"/>
    </personinfo>
    <tripinfo id="D1_1.4" depart="112.20" departLane="140483224#1_1" departPos="8.10" departPosLat="0.00" departSpeed="27.78" departDelay="0.00" arrival="213.40" arrivalLane="-793339796#2_1" arrivalPos="82.50" arrivalPosLat="-0.00" arrivalSpeed="24.33" duration="101.20" routeLength="1645.38" waitingTime="2.50" waitingCount="1" stopTime="0.00" timeLoss="39.59" rerouteNo="1" devices="tripinfo_D1_1.4 routing_D1_1.4" vType="jeep" speedFactor="1.00" vaporized=""/>
    <tripinfo id="C3_1.5" depart="156.50" departLane="440471861#0_1" departPos="8.10" departPosLat="0.00" departSpeed="27.78" departDelay="0.00" arrival="217.40" arrivalLane="-140483224#1_1" arrivalPos="64.04" arrivalPosLat="-0.00" arrivalSpeed="27.76" duration="60.90" routeLength="1049.78" waitingTime="0.00" waitingCount="0" stopTime="0.00" timeLoss="21.74" rerouteNo="1" devices="tripinfo_C3_1.5 routing_C3_1.5" vType="jeep" speedFactor="1.00" vaporized=""/>
    <tripinfo id="C3_1.4" depart="109.30" departLane="440471861#0_1" departPos="8.10" departPosLat="0.00" departSpeed="27.78" departDelay="0.00" arrival="218.60" arrivalLane="-140483224#1_2" arrivalPos="64.04" arrivalPosLat="0.00" arrivalSpeed="27.76" duration="109.30" routeLength="1049.78" waitingTime="43.50" waitingCount="2" stopTime="0.00" timeLoss="70.10" rerouteNo="1" devices="tripinfo_C3_1.4 routing_C3_1.4" vType="jeep" speedFactor="1.00" vaporized=""/>
    <tripinfo id="C1_1.4" depart="125.70" departLane="440471861#0_1" departPos="5.10" departPosLat="0.00" departSpeed="28.41" departDelay="0.00" arrival="220.10" arrivalLane="-793339796#2_1" arrivalPos="82.50" arrivalPosLat="-0.00" arrivalSpeed="28.30" duration="94.40" routeLength="1653.99" waitingTime="16.40" waitingCount="1" stopTime="0.00" timeLoss="35.11" rerouteNo="1" devices="tripinfo_C1_1.4 routing_C1_1.4" vType="car" speedFactor="1.02" vaporized=""/>
    <tripinfo id="D3_1.1" depart="179.60" departLane="140483224#1_2" departPos="5.10" departPosLat="0.00" departSpeed="29.50" departDelay="0.00" arrival="225.60" arrivalLane="-440471861#0_2" arrivalPos="31.52" arrivalPosLat="0.00" arrivalSpeed="29.43" duration="46.00" routeLength="1067.97" waitingTime="0.00" waitingCount="0" stopTime="0.00" timeLoss="8.31" rerouteNo="1" devices="tripinfo_D3_1.1 routing_D3_1.1" vType="car" speedFactor="1.06" vaporized=""/>
    <personinfo id="pf_4.6" depart="135.00" type="ped" speedFactor="1.24" duration="98.70" waitingTime="2.80" timeLoss="12.64" traveltime="98.70">
        <walk depart="135.00" departPos="25.00" arrival="181.50" arrivalPos="29.11" duration="46.50" routeLength="72.15" timeLoss="4.64" maxSpeed="1.72" waitingTime="0.00"/>
        <walk depart="181.50" departPos="29.11" arrival="233.70" arrivalPos="29.05" duration="52.20" routeLength="76.20" timeLoss="8.00" maxSpeed="1.72" waitingTime="2.80"/>
    </personinfo>
    <personinfo id="pf_4.5" depart="112.50" type="ped" speedFactor="1.08" duration="125.50" waitingTime="16.00" timeLoss="26.94" traveltime="125.50">
        <walk depart="112.50" departPos="25.00" arrival="174.80" arrivalPos="29.11" duration="62.30" routeLength="72.15" timeLoss="14.37" maxSpeed="1.51" waitingTime="9.20"/>
        <walk depart="174.80" departPos="29.11" arrival="238.00" arrivalPos="29.05" duration="63.20" routeLength="76.20" timeLoss="12.57" maxSpeed="1.51" waitingTime="6.80"/>
    </personinfo>
    <tripinfo id="C1_1.5" depart="131.40" departLane="440471861#0_1" departPos="12.10" departPosLat="0.00" departSpeed="27.78" departDelay="0.00" arrival="238.00" arrivalLane="-793339796#2_2" arrivalPos="82.50" arrivalPosLat="0.00" arrivalSpeed="24.55" duration="106.60" routeLength="1646.99" waitingTime="9.60" waitingCount="1" stopTime="0.00" timeLoss="46.28" rerouteNo="1" devices="tripinfo_C1_1.5 routing_C1_1.5" vType="bus" speedFactor="1.00" vaporized=""/>
    <tripinfo id="A3_1.2" depart="161.40" departLane="-793339796#2_2" departPos="2.30" departPosLat="0.00" departSpeed="17.99" departDelay="34.30" arrival="239.00" arrivalLane="-140483224#1_2" arrivalPos="64.04" arrivalPosLat="0.00" arrivalSpeed="31.31" duration="77.60" routeLength="1083.74" waitingTime="29.40" waitingCount="1" stopTime="0.00" timeLoss="41.71" rerouteNo="1" devices="tripinfo_A3_1.2 routing_A3_1.2" vType="tricycle" speedFactor="1.13" vaporized=""/>
    <tripinfo id="A2_1.4" depart="161.40" departLane="-793339796#2_1" departPos="5.10" departPosLat="0.00" departSpeed="24.79" departDelay="35.60" arrival="239.80" arrivalLane="-440471861#0_1" arrivalPos="31.52" arrivalPosLat="0.00" arrivalSpeed="24.75" duration="78.40" routeLength="1081.27" waitingTime="25.70" waitingCount="1" stopTime="0.00" timeLoss="34.78" rerouteNo="1" devices="tripinfo_A2_1.4 routing_A2_1.4" vType="car" speedFactor="0.89" vaporized=""/>
    <tripinfo id="A2_1.5" depart="161.80" departLane="-793339796#2_1" departPos="5.10" departPosLat="0.00" departSpeed="21.05" departDelay="31.90" arrival="241.10" arrivalLane="-440471861#0_1" arrivalPos="31.52" arrivalPosLat="-0.00" arrivalSpeed="26.46" duration="79.30" routeLength="1081.27" waitingTime="20.90" waitingCount="1" stopTime="0.00" timeLoss="38.57" rerouteNo="1" devices="tripinfo_A2_1.5 routing_A2_1.5" vType="car" speedFactor="0.96" vaporized=""/>
    <tripinfo id="B1_1.0" depart="75.60" departLane="-361257727#0_1" departPos="5.10" departPosLat="0.00" departSpeed="8.37" departDelay="0.00" arrival="242.80" arrivalLane="-793339796#2_1" arrivalPos="82.50" arrivalPosLat="-0.00" arrivalSpeed="27.87" duration="167.20" routeLength="1915.44" waitingTime="8.40" waitingCount="1" stopTime="0.00" timeLoss="33.24" rerouteNo="1" devices="tripinfo_B1_1.0 routing_B1_1.0" vType="car" speedFactor="1.00" vaporized=""/>
    <tripinfo id="C1_1.6" depart="142.00" departLane="440471861#0_1" departPos="7.20" departPosLat="0.00" departSpeed="24.83" departDelay="0.00" arrival="243.00" arrivalLane="-793339796#2_2" arrivalPos="82.50" arrivalPosLat="0.00" arrivalSpeed="24.81" duration="101.00" routeLength="1651.89" waitingTime="0.00" waitingCount="0" stopTime="0.00" timeLoss="33.19" rerouteNo="1" devices="tripinfo_C1_1.6 routing_C1_1.6" vType="truck" speedFactor="0.89" vaporized=""/>
    <tripinfo id="A3_1.3" depart="173.20" departLane="-793339796#2_2" departPos="5.10" departPosLat="0.00" departSpeed="22.79" departDelay="0.00" arrival="244.80" arrivalLane="-140483224#1_2" arrivalPos="64.04" arrivalPosLat="0.00" arrivalSpeed="22.71" duration="71.60" routeLength="1080.94" waitingTime="4.00" waitingCount="2" stopTime="0.00" timeLoss="22.34" rerouteNo="1" devices="tripinfo_A3_1.3 routing_A3_1.3" vType="car" speedFactor="0.82" vaporized=""/>
    <tripinfo id="C1_1.7" depart="160.50" departLane="440471861#0_1" departPos="5.10" departPosLat="0.00" departSpeed="30.21" departDelay="0.00" arrival="253.50" arrivalLane="-793339796#2_1" arrivalPos="82.50" arrivalPosLat="-0.00" arrivalSpeed="30.14" duration="93.00" routeLength="1653.99" waitingTime="14.80" waitingCount="1" stopTime="0.00" timeLoss="37.23" rerouteNo="1" devices="tripinfo_C1_1.7 routing_C1_1.7" vType="car" speedFactor="1.09" vaporized=""/>
    <personinfo id="pf_2.10" depart="225.00" type="ped" speedFactor="1.09" duration="33.70" waitingTime="11.10" timeLoss="13.35" traveltime="33.70">
        <walk depart="225.00" departPos="15.09" arrival="258.70" arrivalPos="3.44" duration="33.70" routeLength="30.72" timeLoss="13.35" maxSpeed="1.51" waitingTime="11.10"/>
    </personinfo>
    <tripinfo id="A1_1.0" depart="162.20" departLane="-793339796#2_1" departPos="5.10" departPosLat="0.00" departSpeed="17.35" departDelay="4.30" arrival="259.70" arrivalLane="-145894807#0_1" arrivalPos="260.95" arrivalPosLat="0.00" arrivalSpeed="8.14" duration="97.50" routeLength="1056.72" waitingTime="0.00" waitingCount="0" stopTime="0.00" timeLoss="6.45" rerouteNo="1" devices="tripinfo_A1_1.0 routing_A1_1.0" vType="car" speedFactor="0.98" vaporized=""/>
    <personinfo id="pf_2.9" depart="202.50" type="ped" speedFactor="0.94" duration="58.70" waitingTime="32.60" timeLoss="35.17" traveltime="58.70">
        <walk depart="202.50" departPos="15.09" arrival="261.20" arrivalPos="3.44" duration="58.70" routeLength="30.72" timeLoss="35.17" maxSpeed="1.31" waitingTime="32.60"/>
    </personinfo>
    <tripinfo id="D2_1.2" depart="134.80" departLane="140483224#1_1" departPos="5.10" departPosLat="0.00" departSpeed="25.50" departDelay="0.00" arrival="266.60" arrivalLane="-145894807#0_1" arrivalPos="260.95" arrivalPosLat="0.00" arrivalSpeed="7.61" duration="131.80" routeLength="1092.76" waitingTime="29.40" waitingCount="2" stopTime="0.00" timeLoss="38.82" rerouteNo="1" devices="tripinfo_D2_1.2 routing_D2_1.2" vType="car" speedFactor="0.92" vaporized=""/>
    <personinfo id="pf_4.7" depart="157.50" type="ped" speedFactor="1.06" duration="111.60" waitingTime="0.00" timeLoss="10.91" traveltime="111.60">
        <walk depart="157.50" departPos="25.00" arrival="211.80" arrivalPos="29.11" duration="54.30" routeLength="72.15" timeLoss="5.33" maxSpeed="1.47" waitingTime="0.00"/>
        <walk depart="211.80" departPos="29.11" arrival="269.10" arrivalPos="29.05" duration="57.30" routeLength="76.20" timeLoss="5.58" maxSpeed="1.47" waitingTime="0.00"/>
    </personinfo>
    <tripinfo id="D2_1.3" depart="185.20" departLane="140483224#1_1" departPos="2.30" departPosLat="0.00" departSpeed="28.42" departDelay="0.00" arrival="270.50" arrivalLane="-145894807#0_1" arrivalPos="260.95" arrivalPosLat="0.00" arrivalSpeed="8.44" duration="85.30" routeLength="1095.56" waitingTime="0.00" waitingCount="0" stopTime="0.00" timeLoss="1.79" rerouteNo="1" devices="tripinfo_D2_1.3 routing_D2_1.3" vType="motorcycle" speedFactor="1.02" vaporized=""/>
    <tripinfo id="C3_1.6" depart="208.00" departLane="440471861#0_1" departPos="5.10" departPosLat="0.00" departSpeed="26.68" departDelay="0.00" arrival="271.00" arrivalLane="-140483224#1_2" arrivalPos="64.04" arrivalPosLat="0.00" arrivalSpeed="26.60" duration="63.00" routeLength="1052.78" waitingTime="7.70" waitingCount="2" stopTime="0.00" timeLoss="22.07" rerouteNo="1" devices="tripinfo_C3_1.6 routing_C3_1.6" vType="car" speedFactor="0.96" vaporized=""/>
    <tripinfo id="B2_1.2" depart="129.20" departLane="-361257727#0_1" departPos="5.10" departPosLat="0.00" departSpeed="7.05" departDelay="0.00" arrival="274.80" arrivalLane="-440471861#0_1" arrivalPos="31.52" arrivalPosLat="-0.00" arrivalSpeed="26.73" duration="145.60" routeLength="1397.68" waitingTime="8.60" waitingCount="1" stopTime="0.00" timeLoss="24.34" rerouteNo="1" devices="tripinfo_B2_1.2 routing_B2_1.2" vType="car" speedFactor="0.97" vaporized=""/>