<?xml version="1.0" encoding="UTF-8"?>

<!-- generated on 2026-02-17 00:42:20 by Eclipse SUMO sumo Version 1.24.0
<sumoConfiguration xmlns:xsi="http://www.w3.org/2001/XMLSchema-instance" xsi:noNamespaceSchemaLocation="http://sumo.dlr.de/xsd/sumoConfiguration.xsd">

    <input>
        <net-file value="Olivarez_traci/network/map1.net.xml"/>
        <route-files value="Olivarez_traci/demand/flows_normal_traffic.rou.xml"/>
        <additional-files value="Olivarez_traci/additionals/map.poly.xml,Olivarez_traci/ additionals/detectors.add.xml"/>
    </input>

    <output>
        <tripinfo-output value="Olivarez_traci\output_DDPG\Global_SD_DDPG_trips.xml"/>
        <statistic-output value="Olivarez_traci\output_DDPG\Global_SD_DDPG_stats.xml"/>
    </output>

    <time>
        <begin value="0"/>
        <end value="10800"/>
        <step-length value="0.1"/>
    </time>

    <processing>
        <lateral-resolution value="0.1"/>
        <collision.action value="none"/>
        <collision.check-junctions value="false"/>
        <collision.mingap-factor value="0"/>
    </processing>

    <report>
        <no-warnings value="true"/>
    </report>

    <traci_server>
        <remote-port value="59578"/>
    </traci_server>

    <gui_only>
        <delay value="0"/>
    </gui_only>

</sumoConfiguration>
-->

<tripinfos xmlns:xsi="http://www.w3.org/2001/XMLSchema-instance" xsi:noNamespaceSchemaLocation="http://sumo.dlr.de/xsd/tripinfo_file.xsd">
    <personinfo id="pf_2.0" depart="0.00" type="ped" speedFactor="1.03" duration="23.90" waitingTime="0.00" timeLoss="2.52" traveltime="23.90">
        <walk depart="0.00" departPos="15.09" arrival="23.90" arrivalPos="3.44" duration="23.90" routeLength="30.72" timeLoss="2.52" maxSpeed="1.44" waitingTime="0.00"/>
    </personinfo>
    <tripinfo id="D3_1.0" depart="15.30" departLane="140483224#1_2" departPos="5.10" departPosLat="0.00" departSpeed="27.91" departDelay="0.00" arrival="59.80" arrivalLane="-440471861#0_2" arrivalPos="31.52" arrivalPosLat="0.00" arrivalSpeed="27.83" duration="44.50" routeLength="1067.97" waitingTime="0.00" waitingCount="0" stopTime="0.00" timeLoss="4.68" rerouteNo="1" devices="tripinfo_D3_1.0 routing_D3_1.0" vType="car" speedFactor="1.00" vaporized=""/>
    <tripinfo id="A2_1.0" depart="8.90" departLane="-793339796#2_1" departPos="2.30" departPosLat="0.00" departSpeed="27.90" departDelay="0.00" arrival="70.70" arrivalLane="-440471861#0_1" arrivalPos="31.52" arrivalPosLat="0.00" arrivalSpeed="27.76" duration="61.80" routeLength="1084.07" waitingTime="15.10" waitingCount="2" stopTime="0.00" timeLoss="22.89" rerouteNo="1" devices="tripinfo_A2_1.0 routing_A2_1.0" vType="motorcycle" speedFactor="1.00" vaporized=""/>
    <tripinfo id="A2_1.1" depart="16.40" departLane="-793339796#2_1" departPos="5.10" departPosLat="0.00" departSpeed="26.58" departDelay="0.00" arrival="75.40" arrivalLane="-440471861#0_2" arrivalPos="31.52" arrivalPosLat="0.00" arrivalSpeed="26.47" duration="59.00" routeLength="1081.27" waitingTime="7.40" waitingCount="1" stopTime="0.00" timeLoss="18.24" rerouteNo="1" devices="tripinfo_A2_1.1 routing_A2_1.1" vType="car" speedFactor="0.96" vaporized=""/>
    <tripinfo id="D1_1.0" depart="1.20" departLane="140483224#1_1" departPos="5.10" departPosLat="0.00" departSpeed="23.74" departDelay="0.00" arrival="94.30" arrivalLane="-793339796#2_2" arrivalPos="82.50" arrivalPosLat="0.00" arrivalSpeed="23.69" duration="93.10" routeLength="1648.38" waitingTime="3.70" waitingCount="1" stopTime="0.00" timeLoss="20.82" rerouteNo="1" devices="tripinfo_D1_1.0 routing_D1_1.0" vType="car" speedFactor="0.85" vaporized=""/>
    <personinfo id="pf_2.1" depart="45.00" type="ped" speedFactor="1.00" duration="51.10" waitingTime="26.60" timeLoss="28.94" traveltime="51.10">
        <walk depart="45.00" departPos="15.09" arrival="96.10" arrivalPos="3.44" duration="51.10" routeLength="30.72" timeLoss="28.94" maxSpeed="1.39" waitingTime="26.60"/>
    </personinfo>
    <tripinfo id="C3_1.0" depart="22.80" departLane="440471861#0_1" departPos="8.10" departPosLat="0.00" departSpeed="27.78" departDelay="0.00" arrival="113.20" arrivalLane="-140483224#1_1" arrivalPos="64.04" arrivalPosLat="-0.00" arrivalSpeed="27.75" duration="90.40" routeLength="1049.78" waitingTime="24.70" waitingCount="2" stopTime="0.00" timeLoss="51.22" rerouteNo="1" devices="tripinfo_C3_1.0 routing_C3_1.0" vType="jeep" speedFactor="1.00" vaporized=""/>
    <tripinfo id="C1_1.0" depart="35.30" departLane="440471861#0_1" departPos="5.10" departPosLat="0.00" departSpeed="28.06" departDelay="0.00" arrival="114.70" arrivalLane="-793339796#2_1" arrivalPos="82.50" arrivalPosLat="-0.00" arrivalSpeed="27.99" duration="79.40" routeLength="1653.99" waitingTime="0.90" waitingCount="1" stopTime="0.00" timeLoss="19.42" rerouteNo="1" devices="tripinfo_C1_1.0 routing_C1_1.0" vType="car" speedFactor="1.01" vaporized=""/>
    <personinfo id="pf_4.0" depart="0.00" type="ped" speedFactor="0.95" duration="124.60" waitingTime="0.00" timeLoss="12.30" traveltime="124.60">
        <walk depart="0.00" departPos="25.00" arrival="60.60" arrivalPos="29.11" duration="60.60" routeLength="72.15" timeLoss="5.98" maxSpeed="1.32" waitingTime="0.00"/>
        <walk depart="60.60" departPos="29.11" arrival="124.60" arrivalPos="29.05" duration="64.00" routeLength="76.20" timeLoss="6.32" maxSpeed="1.32" waitingTime="0.00"/>
    </personinfo>
    <tripinfo id="C2_1.0" depart="40.30" departLane="440471861#0_2" departPos="2.30" departPosLat="0.00" departSpeed="27.09" departDelay="0.00" arrival="132.10" arrivalLane="-145894807#0_1" arrivalPos="260.95" arrivalPosLat="0.00" arrivalSpeed="8.10" duration="91.80" routeLength="1084.86" waitingTime="0.00" waitingCount="0" stopTime="0.00" timeLoss="4.20" rerouteNo="1" devices="tripinfo_C2_1.0 routing_C2_1.0" vType="tricycle" speedFactor="0.98" vaporized=""/>
    <personinfo id="pf_2.2" depart="90.00" type="ped" speedFactor="1.02" duration="69.20" waitingTime="45.00" timeLoss="47.45" traveltime="69.20">
        <walk depart="90.00" departPos="15.09" arrival="159.20" arrivalPos="3.44" duration="69.20" routeLength="30.72" timeLoss="47.45" maxSpeed="1.41" waitingTime="45.00"/>
    </personinfo>
    <personinfo id="pf_2.3" depart="135.00" type="ped" speedFactor="0.97" duration="25.80" waitingTime="0.30" timeLoss="2.93" traveltime="25.80">
        <walk depart="135.00" departPos="15.09" arrival="160.80" arrivalPos="3.44" duration="25.80" routeLength="30.72" timeLoss="2.93" maxSpeed="1.34" waitingTime="0.30"/>
    </personinfo>
    <personinfo id="pf_4.1" depart="45.00" type="ped" speedFactor="1.01" duration="117.00" waitingTime="0.00" timeLoss="11.55" traveltime="117.00">
        <walk depart="45.00" departPos="25.00" arrival="101.70" arrivalPos="29.11" duration="56.70" routeLength="72.15" timeLoss="5.41" maxSpeed="1.41" waitingTime="0.00"/>
        <walk depart="101.70" departPos="29.11" arrival="162.00" arrivalPos="29.05" duration="60.30" routeLength="76.20" timeLoss="6.14" maxSpeed="1.41" waitingTime="0.00"/>
    </personinfo>
    <tripinfo id="D1_1.1" depart="74.50" departLane="140483224#1_1" departPos="8.10" departPosLat="0.00" departSpeed="27.78" departDelay="0.00" arrival="163.90" arrivalLane="-793339796#2_2" arrivalPos="82.50" arrivalPosLat="0.00" arrivalSpeed="24.60" duration="89.40" routeLength="1645.38" waitingTime="0.00" waitingCount="0" stopTime="0.00" timeLoss="27.87" rerouteNo="1" devices="tripinfo_D1_1.1 routing_D1_1.1" vType="jeep" speedFactor="1.00" vaporized=""/>
    <tripinfo id="D1_1.2" depart="92.30" departLane="140483224#1_1" departPos="5.10" departPosLat="0.00" departSpeed="26.79" departDelay="0.00" arrival="169.00" arrivalLane="-793339796#2_2" arrivalPos="82.50" arrivalPosLat="0.00" arrivalSpeed="26.70" duration="76.70" routeLength="1648.38" waitingTime="0.00" waitingCount="0" stopTime="0.00" timeLoss="12.75" rerouteNo="1" devices="tripinfo_D1_1.2 routing_D1_1.2" vType="car" speedFactor="0.96" vaporized=""/>
    <tripinfo id="C3_1.1" depart="87.10" departLane="440471861#0_1" departPos="12.10" departPosLat="0.00" departSpeed="27.78" departDelay="0.00" arrival="175.90" arrivalLane="-140483224#1_2" arrivalPos="64.04" arrivalPosLat="0.00" arrivalSpeed="27.72" duration="88.80" routeLength="1045.78" waitingTime="13.70" waitingCount="2" stopTime="0.00" timeLoss="49.81" rerouteNo="1" devices="tripinfo_C3_1.1 routing_C3_1.1" vType="bus" speedFactor="1.00" vaporized=""/>
    <tripinfo id="C1_1.2" depart="82.10" departLane="440471861#0_1" departPos="8.10" departPosLat="0.00" departSpeed="27.78" departDelay="0.00" arrival="188.70" arrivalLane="-793339796#2_1" arrivalPos="82.50" arrivalPosLat="-0.00" arrivalSpeed="24.36" duration="106.60" routeLength="1650.99" waitingTime="12.60" waitingCount="1" stopTime="0.00" timeLoss="46.10" rerouteNo="1" devices="tripinfo_C1_1.2 routing_C1_1.2" vType="jeep" speedFactor="1.00" vaporized=""/>
    <tripinfo id="C1_1.1" depart="63.70" departLane="440471861#0_1" departPos="12.10" departPosLat="0.00" departSpeed="27.78" departDelay="0.00" arrival="192.80" arrivalLane="-793339796#2_2" arrivalPos="82.50" arrivalPosLat="0.00" arrivalSpeed="24.46" duration="129.10" routeLength="1646.99" waitingTime="31.90" waitingCount="1" stopTime="0.00" timeLoss="68.61" rerouteNo="1" devices="tripinfo_C1_1.1 routing_C1_1.1" vType="bus" speedFactor="1.00" vaporized=""/>
    <tripinfo id="A3_1.0" depart="137.10" departLane="-793339796#2_2" departPos="5.10" departPosLat="0.00" departSpeed="26.39" departDelay="10.00" arrival="197.50" arrivalLane="-140483224#1_2" arrivalPos="64.04" arrivalPosLat="0.00" arrivalSpeed="26.30" duration="60.40" routeLength="1080.94" waitingTime="3.80" waitingCount="2" stopTime="0.00" timeLoss="17.91" rerouteNo="1" devices="tripinfo_A3_1.0 routing_A3_1.0" vType="car" speedFactor="0.95" vaporized=""/>
    <tripinfo id="A2_1.3" depart="137.40" departLane="-793339796#2_1" departPos="5.10" departPosLat="0.00" departSpeed="23.73" departDelay="7.50" arrival="198.80" arrivalLane="-440471861#0_2" arrivalPos="31.52" arrivalPosLat="0.00" arrivalSpeed="26.10" duration="61.40" routeLength="1081.27" waitingTime="0.00" waitingCount="0" stopTime="0.00" timeLoss="19.93" rerouteNo="1" devices="tripinfo_A2_1.3 routing_A2_1.3" vType="car" speedFactor="0.94" vaporized=""/>
    <tripinfo id="A2_1.2" depart="137.10" departLane="-793339796#2_1" departPos="8.10" departPosLat="0.00" departSpeed="27.78" departDelay="11.30" arrival="205.10" arrivalLane="-440471861#0_1" arrivalPos="31.52" arrivalPosLat="0.00" arrivalSpeed="27.77" duration="68.00" routeLength="1078.27" waitingTime="1.70" waitingCount="1" stopTime="0.00" timeLoss="29.13" rerouteNo="1" devices="tripinfo_A2_1.2 routing_A2_1.2" vType="jeep" speedFactor="1.00" vaporized=""/>
    <tripinfo id="B2_1.0" depart="62.00" departLane="-361257727#0_1" departPos="5.10" departPosLat="0.00" departSpeed="7.79" departDelay="0.00" arrival="207.90" arrivalLane="-440471861#0_1" arrivalPos="31.52" arrivalPosLat="-0.00" arrivalSpeed="25.86" duration="145.90" routeLength="1397.68" waitingTime="11.30" waitingCount="1" stopTime="0.00" timeLoss="20.72" rerouteNo="1" devices="tripinfo_B2_1.0 routing_B2_1.0" vType="car" speedFactor="0.93" vaporized=""/>
    <personinfo id="pf_4.2" depart="90.00" type="ped" speedFactor="0.97" duration="122.30" waitingTime="0.00" timeLoss="12.18" traveltime="122.30">
        <walk depart="90.00" departPos="25.00" arrival="149.50" arrivalPos="29.11" duration="59.50" routeLength="72.15" timeLoss="5.94" maxSpeed="1.35" waitingTime="0.00"/>
        <walk depart="149.50" departPos="29.11" arrival="212.30" arrivalPos="29.05" duration="62.80" routeLength="76.20" timeLoss="6.23" maxSpeed="1.35" waitingTime="0.00"/>
    </personinfo>
    <tripinfo id="D2_1.0" depart="93.70" departLane="140483224#1_2" departPos="7.20" departPosLat="0.00" departSpeed="28.45" departDelay="0.00" arrival="214.60" arrivalLane="-145894807#0_1" arrivalPos="260.95" arrivalPosLat="-0.00" arrivalSpeed="8.48" duration="120.90" routeLength="1090.66" waitingTime="26.40" waitingCount="1" stopTime="0.00" timeLoss="37.62" rerouteNo="1" devices="tripinfo_D2_1.0 routing_D2_1.0" vType="truck" speedFactor="1.02" vaporized=""/>
    <personinfo id="pf_2.4" depart="180.00" type="ped" speedFactor="1.15" duration="34.80" waitingTime="13.60" timeLoss="15.53" traveltime="34.80">
        <walk depart="180.00" departPos="15.09" arrival="214.80" arrivalPos="3.44" duration="34.80" routeLength="30.72" timeLoss="15.53" maxSpeed="1.59" waitingTime="13.60"/>
    </personinfo>
    <tripinfo id="D2_1.1" depart="134.80" departLane="140483224#1_1" departPos="8.10" departPosLat="0.00" departSpeed="27.78" departDelay="0.00" arrival="222.90" arrivalLane="-145894807#0_1" arrivalPos="260.95" arrivalPosLat="0.00" arrivalSpeed="8.29" duration="88.10" routeLength="1089.76" waitingTime="0.00" waitingCount="0" stopTime="0.00" timeLoss="2.93" rerouteNo="1" devices="tripinfo_D2_1.1 routing_D2_1.1" vType="jeep" speedFactor="1.00" vaporized=""/>
    <tripinfo id="D1_1.3" depart="117.10" departLane="140483224#1_1" departPos="7.20" departPosLat="0.00" departSpeed="25.89" departDelay="0.00" arrival="228.20" arrivalLane="-793339796#2_2" arrivalPos="82.50" arrivalPosLat="0.00" arrivalSpeed="25.49" duration="111.10" routeLength="1646.28" waitingTime="6.00" waitingCount="2" stopTime="0.00" timeLoss="45.03" rerouteNo="1" devices="tripinfo_D1_1.3 routing_D1_1.3" vType="truck" speedFactor="0.93" vaporized=""/>
    <tripinfo id="B1_1.0" depart="75.60" departLane="-361257727#0_1" departPos="5.10" departPosLat="0.00" departSpeed="8.25" departDelay="0.00" arrival="229.50" arrivalLane="-793339796#2_2" arrivalPos="82.50" arrivalPosLat="0.00" arrivalSpeed="27.45" duration="153.90" routeLength="1915.44" waitingTime="0.00" waitingCount="0" stopTime="0.00" timeLoss="17.97" rerouteNo="1" devices="tripinfo_B1_1.0 routing_B1_1.0" vType="car" speedFactor="0.99" vaporized=""/>
    <tripinfo id="C3_1.2" depart="156.50" departLane="440471861#0_1" departPos="8.10" departPosLat="0.00" departSpeed="27.78" departDelay="0.00" arrival="232.40" arrivalLane="-140483224#1_2" arrivalPos="64.04" arrivalPosLat="0.00" arrivalSpeed="27.78" duration="75.90" routeLength="1049.78" waitingTime="4.20" waitingCount="1" stopTime="0.00" timeLoss="36.70" rerouteNo="1" devices="tripinfo_C3_1.2 routing_C3_1.2" vType="jeep" speedFactor="1.00" vaporized=""/>
    <tripinfo id="C1_1.3" depart="142.00" departLane="440471861#0_1" departPos="8.10" departPosLat="0.00" departSpeed="27.78" departDelay="0.00" arrival="251.90" arrivalLane="-793339796#2_2" arrivalPos="82.50" arrivalPosLat="0.00" arrivalSpeed="24.31" duration="109.90" routeLength="1650.99" waitingTime="16.50" waitingCount="1" stopTime="0.00" timeLoss="49.43" rerouteNo="1" devices="tripinfo_C1_1.3 routing_C1_1.3" vType="jeep" speedFactor="1.00" vaporized=""/>
    <tripinfo id="A3_1.1" depart="193.40" departLane="-793339796#2_1" departPos="2.30" departPosLat="0.00" departSpeed="28.47" departDelay="0.00" arrival="253.20" arrivalLane="-140483224#1_2" arrivalPos="64.04" arrivalPosLat="0.00" arrivalSpeed="28.44" duration="59.80" routeLength="1083.74" waitingTime="7.90" waitingCount="1" stopTime="0.00" timeLoss="20.20" rerouteNo="1" devices="tripinfo_A3_1.1 routing_A3_1.1" vType="tricycle" speedFactor="1.02" vaporized=""/>
    <personinfo id="pf_4.3" depart="135.00" type="ped" speedFactor="0.99" duration="119.60" waitingTime="0.00" timeLoss="11.68" traveltime="119.60">
        <walk depart="135.00" departPos="25.00" arrival="193.30" arrivalPos="29.11" duration="58.30" routeLength="72.15" timeLoss="5.81" maxSpeed="1.37" waitingTime="0.00"/>
        <walk depart="193.30" departPos="29.11" arrival="254.60" arrivalPos="29.05" duration="61.30" routeLength="76.20" timeLoss="5.87" maxSpeed="1.37" waitingTime="0.00"/>
    </personinfo>
    <tripinfo id="A1_1.0" depart="157.90" departLane="-793339796#2_1" departPos="2.30" departPosLat="0.00" departSpeed="26.36" departDelay="0.00" arrival="255.10" arrivalLane="-145894807#0_1" arrivalPos="260.95" arrivalPosLat="0.00" arrivalSpeed="7.74" duration="97.20" routeLength="1059.52" waitingTime="0.00" waitingCount="0" stopTime="0.00" timeLoss="2.78" rerouteNo="1" devices="tripinfo_A1_1.0 routing_A1_1.0" vType="motorcycle" speedFactor="0.95" vaporized=""/>
    <tripinfo id="B2_1.1" depart="129.20" departLane="-361257727#0_1" departPos="8.10" departPosLat="0.00" departSpeed="8.33" departDelay="0.00" arrival="269.50" arrivalLane="-440471861#0_1" arrivalPos="31.52" arrivalPosLat="-0.00" arrivalSpeed="27.77" duration="140.30" routeLength="1394.68" waitingTime="4.10" waitingCount="1" stopTime="0.00" timeLoss="23.66" rerouteNo="1" devices="tripinfo_B2_1.1 routing_B2_1.1" vType="jeep" speedFactor="1.00" vaporized=""/>
    <tripinfo id="D2_1.2" depart="185.20" departLane="140483224#1_1" departPos="5.10" departPosLat="0.00" departSpeed="28.21" departDelay="0.00" arrival="271.20" arrivalLane="-145894807#0_1" arrivalPos="260.95" arrivalPosLat="0.00" arrivalSpeed="8.34" duration="86.00" routeLength="1092.76" waitingTime="0.00" waitingCount="0" stopTime="0.00" timeLoss="2.02" rerouteNo="1" devices="tripinfo_D2_1.2 routing_D2_1.2" vType="car" speedFactor="1.02" vaporized=""/>
    <personinfo id="pf_2.5" depart="225.00" type="ped" speedFactor="0.98" duration="46.90" waitingTime="21.90" timeLoss="24.23" traveltime="46.90">
        <walk depart="225.00" departPos="15.09" arrival="271.90" arrivalPos="3.44" duration="46.90" routeLength="30.72" timeLoss="24.23" maxSpeed="1.36" waitingTime="21.90"/>
    </personinfo>
    <tripinfo id="C3_1.3" depart="208.00" departLane="440471861#0_1" departPos="2.30" departPosLat="0.00" departSpeed="26.97" departDelay="0.00" arrival="282.80" arrivalLane="-140483224#1_2" arrivalPos="64.04" arrivalPosLat="0.00" arrivalSpeed="26.88" duration="74.80" routeLength="1055.58" waitingTime="19.20" waitingCount="2" stopTime="0.00" timeLoss="34.26" rerouteNo="1" devices="tripinfo_C3_1.3 routing_C3_1.3" vType="tricycle" speedFactor="0.97" vaporized=""/>
    <tripinfo id="B2_1.2" depart="150.30" departLane="-361257727#0_1" departPos="2.30" departPosLat="0.00" departSpeed="7.32" departDelay="0.00" arrival="289.30" arrivalLane="-440471861#0_1" arrivalPos="31.52" arrivalPosLat="-0.00" arrivalSpeed="24.37" duration="139.00" routeLength="1400.48" waitingTime="0.00" waitingCount="0" stopTime="0.00" timeLoss="5.31" rerouteNo="1" devices="tripinfo_B2_1.2 routing_B2_1.2" vType="tricycle" speedFactor="0.88" vaporized=""/>
    <tripinfo id="C1_1.4" depart="227.40" departLane="440471861#0_1" departPos="2.30" departPosLat="0.00" departSpeed="29.51" departDelay="0.00" arrival="292.20" arrivalLane="-793339796#2_2" arrivalPos="82.50" arrivalPosLat="0.00" arrivalSpeed="29.32" duration="64.80" routeLength="1656.79" waitingTime="0.00" waitingCount="0" stopTime="0.00" timeLoss="7.57" rerouteNo="1" devices="tripinfo_C1_1.4 routing_C1_1.4" vType="motorcycle" speedFactor="1.06" vaporized=""/>
    <tripinfo id="D3_1.1" depart="201.70" departLane="140483224#1_2" departPos="5.10" departPosLat="0.00" departSpeed="22.64" departDelay="0.00" arrival="295.90" arrivalLane="-440471861#0_2" arrivalPos="31.52" arrivalPosLat="0.00" arrivalSpeed="22.58" duration="94.20" routeLength="1067.97" waitingTime="38.10" waitingCount="1" stopTime="0.00" timeLoss="45.12" rerouteNo="1" devices="tripinfo_D3_1.1 routing_D3_1.1" vType="car" speedFactor="0.82" vaporized=""/>
    <tripinfo id="D3_1.2" depart="206.80" departLane="140483224#1_2" departPos="5.10" departPosLat="0.00" departSpeed="29.15" departDelay="0.00" arrival="297.20" arrivalLane="-440471861#0_2" arrivalPos="31.52" arrivalPosLat="0.00" arrivalSpeed="24.84" duration="90.40" routeLength="1067.97" waitingTime="36.90" waitingCount="1" stopTime="0.00" timeLoss="52.23" rerouteNo="1" devices="tripinfo_D3_1.2 routing_D3_1.2" vType="car" speedFactor="1.05" vaporized=""/>
    <personinfo id="pf_4.4" depart="180.00" type="ped" speedFactor="1.02" duration="120.10" waitingTime="3.90" timeLoss="15.79" traveltime="120.10">
        <walk depart="180.00" departPos="25.00" arrival="236.40" arrivalPos="29.11" duration="56.40" routeLength="72.15" timeLoss="5.67" maxSpeed="1.42" waitingTime="0.00"/>
        <walk depart="236.40" departPos="29.11" arrival="300.10" arrivalPos="29.05" duration="63.70" routeLength="76.20" timeLoss="10.12" maxSpeed="1.42" waitingTime="3.90"/>
    </personinfo>
    <tripinfo id="A3_1.2" depart="214.60" departLane="-793339796#2_2" departPos="5.10" departPosLat="0.00" departSpeed="27.11" departDelay="0.00" arrival="302.80" arrivalLane="-140483224#1_2" arrivalPos="64.04" arrivalPosLat="0.00" arrivalSpeed="27.06" duration="88.20" routeLength="1080.94" waitingTime="38.50" waitingCount="1" stopTime="0.00" timeLoss="46.73" rerouteNo="1" devices="tripinfo_A3_1.2 routing_A3_1.2" vType="car" speedFactor="0.98" vaporized=""/>
    <tripinfo id="A3_1.4" depart="229.20" departLane="-793339796#2_2" departPos="8.10" departPosLat="0.00" departSpeed="27.78" departDelay="1.60" arrival="311.30" arrivalLane="-140483224#1_2" arrivalPos="64.04" arrivalPosLat="0.00" arrivalSpeed="27.74" duration="82.10" routeLength="1077.94" waitingTime="20.40" waitingCount="1" stopTime="0.00" timeLoss="41.70" rerouteNo="1" devices="tripinfo_A3_1.4 routing_A3_1.4" vType="jeep" speedFactor="1.00" vaporized=""/>
    <personinfo id="pf_1.0" depart="0.00" type="ped" speedFactor="1.06" duration="322.20" waitingTime="87.10" timeLoss="110.50" traveltime="322.20">
        <walk depart="0.00" departPos="25.00" arrival="322.20" arrivalPos="3.44" duration="322.20" routeLength="311.67" timeLoss="110.50" maxSpeed="1.47" waitingTime="87.10"/>
    </personinfo>
    <personinfo id="pf_2.6" depart="270.00" type="ped" speedFactor="1.00" duration="53.20" waitingTime="28.70" timeLoss="31.12" traveltime="53.20">
        <walk depart="270.00" departPos="15.09" arrival="323.20" arrivalPos="3.44" duration="53.20" routeLength="30.72" timeLoss="31.12" maxSpeed="1.39" waitingTime="28.70"/>
    </personinfo>
    <tripinfo id="D1_1.4" depart="236.00" departLane="140483224#1_1" departPos="7.20" departPosLat="0.00" departSpeed="26.48" departDelay="0.00" arrival="326.90" arrivalLane="-793339796#2_2" arrivalPos="82.50" arrivalPosLat="0.00" arrivalSpeed="25.19" duration="90.90" routeLength="1646.28" waitingTime="0.00" waitingCount="0" stopTime="0.00" timeLoss="26.32" rerouteNo="1" devices="tripinfo_D1_1.4 routing_D1_1.4" vType="truck" speedFactor="0.95" vaporized=""/>
    <tripinfo id="D2_1.3" depart="223.20" departLane="140483224#1_1" departPos="2.30" departPosLat="0.00" departSpeed="26.42" departDelay="0.00" arrival="330.40" arrivalLane="-145894807#0_1" arrivalPos="260.95" arrivalPosLat="0.00" arrivalSpeed="7.69" duration="107.20" routeLength="1095.56" waitingTime="11.50" waitingCount="1" stopTime="0.00" timeLoss="17.36" rerouteNo="1" devices="tripinfo_D2_1.3 routing_D2_1.3" vType="motorcycle" speedFactor="0.95" vaporized=""/>
    <personinfo id="pf_4.5" depart="225.00" type="ped" speedFactor="1.01" duration="117.10" waitingTime="0.00" timeLoss="11.42" traveltime="117.10">
        <walk depart="225.00" departPos="25.00" arrival="281.90" arrivalPos="29.11" duration="56.90" routeLength="72.15" timeLoss="5.50" maxSpeed="1.40" waitingTime="0.00"/>
        <walk depart="281.90" departPos="29.11" arrival="342.10" arrivalPos="29.05" duration="60.20" routeLength="76.20" timeLoss="5.92" maxSpeed="1.40" waitingTime="0.00"/>
    </personinfo>
    <tripinfo id="A1_1.1" depart="257.00" departLane="-793339796#2_1" departPos="8.10" departPosLat="0.00" departSpeed="27.78" departDelay="5.70" arrival="350.90" arrivalLane="-145894807#0_1" arrivalPos="260.95" arrivalPosLat="0.00" arrivalSpeed="8.30" duration="93.90" routeLength="1053.72" waitingTime="0.00" waitingCount="0" stopTime="0.00" timeLoss="4.46" rerouteNo="1" devices="tripinfo_A1_1.1 routing_A1_1.1" vType="jeep" speedFactor="1.00" vaporized=""/>
    <tripinfo id="D3_1.3" depart="212.70" departLane="140483224#1_2" departPos="8.10" departPosLat="0.00" departSpeed="27.78" departDelay="0.00" arrival="351.90" arrivalLane="-440471861#0_2" arrivalPos="31.52" arrivalPosLat="0.00" arrivalSpeed="27.72" duration="139.20" routeLength="1064.97" waitingTime="73.80" waitingCount="2" stopTime="0.00" timeLoss="99.30" rerouteNo="1" devices="tripinfo_D3_1.3 routing_D3_1.3" vType="jeep" speedFactor="1.00" vaporized=""/>
    <tripinfo id="A3_1.3" depart="222.10" departLane="-793339796#2_1" departPos="2.30" departPosLat="0.00" departSpeed="24.80" departDelay="0.00" arrival="354.90" arrivalLane="-140483224#1_2" arrivalPos="64.04" arrivalPosLat="0.00" arrivalSpeed="24.53" duration="132.80" routeLength="1083.74" waitingTime="71.50" waitingCount="3" stopTime="0.00" timeLoss="87.40" rerouteNo="1" devices="tripinfo_A3_1.3 routing_A3_1.3" vType="motorcycle" speedFactor="0.89" vaporized=""/>
    <tripinfo id="A3_1.5" depart="257.00" departLane="-793339796#2_2" departPos="5.10" departPosLat="0.00" departSpeed="23.93" departDelay="1.60" arrival="358.50" arrivalLane="-140483224#1_2" arrivalPos="64.04" arrivalPosLat="0.00" arrivalSpeed="23.84" duration="101.50" routeLength="1080.94" waitingTime="42.50" waitingCount="1" stopTime="0.00" timeLoss="54.58" rerouteNo="1" devices="tripinfo_A3_1.5 routing_A3_1.5" vType="car" speedFactor="0.86" vaporized=""/>
    <tripinfo id="A3_1.6" depart="282.20" departLane="-793339796#2_2" departPos="8.10" departPosLat="0.00" departSpeed="27.78" departDelay="0.00" arrival="364.50" arrivalLane="-140483224#1_2" arrivalPos="64.04" arrivalPosLat="0.00" arrivalSpeed="27.75" duration="82.30" routeLength="1077.94" waitingTime="20.70" waitingCount="1" stopTime="0.00" timeLoss="41.96" rerouteNo="1" devices="tripinfo_A3_1.6 routing_A3_1.6" vType="jeep" speedFactor="1.00" vaporized=""/>
    <personinfo id="pf_2.7" depart="315.00" type="ped" speedFactor="1.04" duration="62.80" waitingTime="39.20" timeLoss="41.59" traveltime="62.80">
        <walk depart="315.00" departPos="15.09" arrival="377.80" arrivalPos="3.44" duration="62.80" routeLength="30.72" timeLoss="41.59" maxSpeed="1.45" waitingTime="39.20"/>
    </personinfo>
    <personinfo id="pf_1.2" depart="90.00" type="ped" speedFactor="1.01" duration="288.60" waitingTime="41.40" timeLoss="66.50" traveltime="288.60">
        <walk depart="90.00" departPos="25.00" arrival="378.60" arrivalPos="3.44" duration="288.60" routeLength="311.67" timeLoss="66.50" maxSpeed="1.40" waitingTime="41.40"/>
    </personinfo>
    <personinfo id="pf_1.1" depart="45.00" type="ped" speedFactor="0.94" duration="334.50" waitingTime="68.60" timeLoss="95.34" traveltime="334.50">
        <walk depart="45.00" departPos="25.00" arrival="379.50" arrivalPos="3.44" duration="334.50" routeLength="311.67" timeLoss="95.34" maxSpeed="1.30" waitingTime="68.60"/>
    </personinfo>
    <personinfo id="pf_1.3" depart="135.00" type="ped" speedFactor="1.08" duration="246.90" waitingTime="16.50" timeLoss="39.64" traveltime="246.90">
        <walk depart="135.00" departPos="25.00" arrival="381.90" arrivalPos="3.44" duration="246.90" routeLength="311.67" timeLoss="39.64" maxSpeed="1.50" waitingTime="16.50"/>
    </personinfo>
    <tripinfo id="D1_1.5" depart="315.20" departLane="140483224#1_1" departPos="5.10" departPosLat="0.00" departSpeed="31.67" departDelay="0.00" arrival="384.00" arrivalLane="-793339796#2_2" arrivalPos="82.50" arrivalPosLat="0.00" arrivalSpeed="31.67" duration="68.80" routeLength="1648.38" waitingTime="0.00" waitingCount="0" stopTime="0.00" timeLoss="14.74" rerouteNo="1" devices="tripinfo_D1_1.5 routing_D1_1.5" vType="car" speedFactor="1.14" vaporized=""/>
    <tripinfo id="C3_1.5" depart="323.90" departLane="440471861#0_1" departPos="5.10" departPosLat="0.00" departSpeed="29.23" departDelay="0.00" arrival="386.30" arrivalLane="-140483224#1_1" arrivalPos="64.04" arrivalPosLat="-0.00" arrivalSpeed="29.17" duration="62.40" routeLength="1052.78" waitingTime="2.30" waitingCount="2" stopTime="0.00" timeLoss="25.10" rerouteNo="1" devices="tripinfo_C3_1.5 routing_C3_1.5" vType="car" speedFactor="1.05" vaporized=""/>
    <tripinfo id="C3_1.4" depart="303.70" departLane="440471861#0_1" departPos="5.10" departPosLat="0.00" departSpeed="26.86" departDelay="0.00" arrival="387.30" arrivalLane="-140483224#1_2" arrivalPos="64.04" arrivalPosLat="0.00" arrivalSpeed="26.85" duration="83.60" routeLength="1052.78" waitingTime="19.40" waitingCount="3" stopTime="0.00" timeLoss="42.97" rerouteNo="1" devices="tripinfo_C3_1.4 routing_C3_1.4" vType="car" speedFactor="0.97" vaporized=""/>
    <personinfo id="pf_4.6" depart="270.00" type="ped" speedFactor="0.97" duration="122.00" waitingTime="0.00" timeLoss="12.18" traveltime="122.00">
        <walk depart="270.00" departPos="25.00" arrival="329.20" arrivalPos="29.11" duration="59.20" routeLength="72.15" timeLoss="5.79" maxSpeed="1.35" waitingTime="0.00"/>
        <walk depart="329.20" departPos="29.11" arrival="392.00" arrivalPos="29.05" duration="62.80" routeLength="76.20" timeLoss="6.39" maxSpeed="1.35" waitingTime="0.00"/>
    </personinfo>
    <tripinfo id="A1_1.2" depart="317.20" departLane="-793339796#2_1" departPos="7.20" departPosLat="0.00" departSpeed="29.37" departDelay="8.00" arrival="406.40" arrivalLane="-145894807#0_1" arrivalPos="260.95" arrivalPosLat="0.00" arrivalSpeed="8.79" duration="89.20" routeLength="1054.62" waitingTime="0.00" waitingCount="0" stopTime="0.00" timeLoss="4.53" rerouteNo="1" devices="tripinfo_A1_1.2 routing_A1_1.2" vType="truck" speedFactor="1.06" vaporized=""/>
    <tripinfo id="A2_1.4" depart="317.20" departLane="-793339796#2_2" departPos="5.10" departPosLat="0.00" departSpeed="28.18" departDelay="4.30" arrival="408.90" arrivalLane="-440471861#0_1" arrivalPos="31.52" arrivalPosLat="-0.00" arrivalSpeed="28.14" duration="91.70" routeLength="1081.27" waitingTime="37.40" waitingCount="1" stopTime="0.00" timeLoss="53.30" rerouteNo="1" devices="tripinfo_A2_1.4 routing_A2_1.4" vType="car" speedFactor="1.01" vaporized=""/>