<?xml version="1.0" encoding="UTF-8"?>

<!-- generated on 2026-02-14 05:55:50 by Eclipse SUMO sumo Version 1.24.0
<sumoConfiguration xmlns:xsi="http://www.w3.org/2001/XMLSchema-instance" xsi:noNamespaceSchemaLocation="http://sumo.dlr.de/xsd/sumoConfiguration.xsd">

    <input>
        <net-file value="Olivarez_traci\network/map1.net.xml"/>
        <route-files value="Olivarez_traci\demand/flows_normal_traffic.rou.xml"/>
        <additional-files value="Olivarez_traci\additionals/map.poly.xml,Olivarez_traci\ additionals/detectors.add.xml"/>
    </input>

    <output>
        <tripinfo-output value="Olivarez_traci\output_DDPG\baseline_normal_SD_DDPG_trips.xml"/>
        <statistic-output value="Olivarez_traci\output_DDPG\baseline_normal_SD_DDPG_stats.xml"/>
    </output>

    <time>
        <begin value="0"/>
        <end value="10800"/>
        <step-length value="0.05"/>
    </time>

    <processing>
        <lateral-resolution value="0.1"/>
        <collision.action value="none"/>
        <collision.check-junctions value="false"/>
        <collision.mingap-factor value="0"/>
    </processing>

    <report>
        <no-warnings value="true"/>
    </report>

    <traci_server>
        <remote-port value="60370"/>
    </traci_server>

    <gui_only>
        <delay value="0"/>
    </gui_only>

</sumoConfiguration>
-->

<tripinfos xmlns:xsi="http://www.w3.org/2001/XMLSchema-instance" xsi:noNamespaceSchemaLocation="http://sumo.dlr.de/xsd/tripinfo_file.xsd">
    <personinfo id="pf_2.0" depart="0.00" type="ped" speedFactor="1.03" duration="23.90" waitingTime="0.00" timeLoss="2.52" traveltime="23.90">
        <walk depart="0.00" departPos="15.09" arrival="23.90" arrivalPos="3.44" duration="23.90" routeLength="30.72" timeLoss="2.52" maxSpeed="1.44" waitingTime="0.00"/>
    </personinfo>
    <tripinfo id="D3_1.0" depart="7.65" departLane="140483224#1_2" departPos="5.10" departPosLat="0.00" departSpeed="27.91" departDelay="0.00" arrival="61.25" arrivalLane="-440471861#0_2" arrivalPos="31.52" arrivalPosLat="0.00" arrivalSpeed="27.90" duration="53.60" routeLength="1067.97" waitingTime="5.35" waitingCount="1" stopTime="0.00" timeLoss="13.80" rerouteNo="1" devices="tripinfo_D3_1.0 routing_D3_1.0" vType="car" speedFactor="1.00" vaporized=""/>
    <tripinfo id="A2_1.0" depart="4.45" departLane="-793339796#2_1" departPos="2.30" departPosLat="0.00" departSpeed="27.90" departDelay="0.00" arrival="77.65" arrivalLane="-440471861#0_1" arrivalPos="31.52" arrivalPosLat="0.00" arrivalSpeed="27.85" duration="73.20" routeLength="1084.07" waitingTime="26.40" waitingCount="2" stopTime="0.00" timeLoss="34.31" rerouteNo="1" devices="tripinfo_A2_1.0 routing_A2_1.0" vType="motorcycle" speedFactor="1.00" vaporized=""/>
    <tripinfo id="D1_1.0" depart="0.60" departLane="140483224#1_1" departPos="5.10" departPosLat="0.00" departSpeed="23.74" departDelay="0.00" arrival="88.40" arrivalLane="-793339796#2_1" arrivalPos="82.50" arrivalPosLat="0.00" arrivalSpeed="23.71" duration="87.80" routeLength="1648.38" waitingTime="0.00" waitingCount="0" stopTime="0.00" timeLoss="15.59" rerouteNo="1" devices="tripinfo_D1_1.0 routing_D1_1.0" vType="car" speedFactor="0.85" vaporized=""/>
    <tripinfo id="D1_1.1" depart="46.15" departLane="140483224#1_1" departPos="5.10" departPosLat="0.00" departSpeed="25.97" departDelay="0.00" arrival="124.45" arrivalLane="-793339796#2_2" arrivalPos="82.50" arrivalPosLat="0.00" arrivalSpeed="25.95" duration="78.30" routeLength="1648.38" waitingTime="0.00" waitingCount="0" stopTime="0.00" timeLoss="12.31" rerouteNo="1" devices="tripinfo_D1_1.1 routing_D1_1.1" vType="car" speedFactor="0.93" vaporized=""/>
    <personinfo id="pf_4.0" depart="0.00" type="ped" speedFactor="0.95" duration="128.25" waitingTime="3.65" timeLoss="15.95" traveltime="128.25">
        <walk depart="0.00" departPos="25.00" arrival="60.55" arrivalPos="29.11" duration="60.55" routeLength="72.15" timeLoss="5.93" maxSpeed="1.32" waitingTime="0.00"/>
        <walk depart="60.55" departPos="29.11" arrival="128.25" arrivalPos="29.05" duration="67.70" routeLength="76.20" timeLoss="10.02" maxSpeed="1.32" waitingTime="3.65"/>
    </personinfo>
    <tripinfo id="C3_1.0" depart="43.55" departLane="440471861#0_1" departPos="2.30" departPosLat="0.00" departSpeed="27.09" departDelay="0.00" arrival="138.85" arrivalLane="-140483224#1_1" arrivalPos="64.04" arrivalPosLat="0.00" arrivalSpeed="27.07" duration="95.30" routeLength="1055.58" waitingTime="34.00" waitingCount="2" stopTime="0.00" timeLoss="54.92" rerouteNo="1" devices="tripinfo_C3_1.0 routing_C3_1.0" vType="tricycle" speedFactor="0.98" vaporized=""/>
    <tripinfo id="C3_1.1" depart="78.25" departLane="440471861#0_1" departPos="8.10" departPosLat="0.00" departSpeed="27.78" departDelay="0.00" arrival="145.55" arrivalLane="-140483224#1_2" arrivalPos="64.04" arrivalPosLat="0.00" arrivalSpeed="27.75" duration="67.30" routeLength="1049.78" waitingTime="6.05" waitingCount="1" stopTime="0.00" timeLoss="28.14" rerouteNo="1" devices="tripinfo_C3_1.1 routing_C3_1.1" vType="jeep" speedFactor="1.00" vaporized=""/>
    <tripinfo id="C1_1.0" depart="31.85" departLane="440471861#0_1" departPos="8.10" departPosLat="0.00" departSpeed="27.78" departDelay="0.00" arrival="146.50" arrivalLane="-793339796#2_2" arrivalPos="82.50" arrivalPosLat="0.00" arrivalSpeed="24.60" duration="114.65" routeLength="1650.99" waitingTime="20.75" waitingCount="1" stopTime="0.00" timeLoss="54.11" rerouteNo="1" devices="tripinfo_C1_1.0 routing_C1_1.0" vType="jeep" speedFactor="1.00" vaporized=""/>
    <tripinfo id="C1_1.1" depart="41.05" departLane="440471861#0_1" departPos="5.10" departPosLat="0.00" departSpeed="28.06" departDelay="0.00" arrival="147.75" arrivalLane="-793339796#2_2" arrivalPos="82.50" arrivalPosLat="0.00" arrivalSpeed="26.40" duration="106.70" routeLength="1653.99" waitingTime="8.95" waitingCount="1" stopTime="0.00" timeLoss="46.63" rerouteNo="1" devices="tripinfo_C1_1.1 routing_C1_1.1" vType="car" speedFactor="1.01" vaporized=""/>
    <tripinfo id="C2_1.0" depart="20.15" departLane="440471861#0_2" departPos="5.10" departPosLat="0.00" departSpeed="26.58" departDelay="0.00" arrival="148.90" arrivalLane="-145894807#0_1" arrivalPos="260.95" arrivalPosLat="0.00" arrivalSpeed="7.95" duration="128.75" routeLength="1082.06" waitingTime="32.65" waitingCount="1" stopTime="0.00" timeLoss="39.67" rerouteNo="1" devices="tripinfo_C2_1.0 routing_C2_1.0" vType="car" speedFactor="0.96" vaporized=""/>
    <tripinfo id="D1_1.2" depart="58.55" departLane="140483224#1_1" departPos="12.10" departPosLat="0.00" departSpeed="27.78" departDelay="0.00" arrival="156.75" arrivalLane="-793339796#2_2" arrivalPos="82.50" arrivalPosLat="0.00" arrivalSpeed="24.19" duration="98.20" routeLength="1641.38" waitingTime="4.35" waitingCount="1" stopTime="0.00" timeLoss="36.80" rerouteNo="1" devices="tripinfo_D1_1.2 routing_D1_1.2" vType="bus" speedFactor="1.00" vaporized=""/>
    <personinfo id="pf_4.1" depart="45.00" type="ped" speedFactor="1.01" duration="117.25" waitingTime="0.00" timeLoss="11.80" traveltime="117.25">
        <walk depart="45.00" departPos="25.00" arrival="102.10" arrivalPos="29.11" duration="57.10" routeLength="72.15" timeLoss="5.81" maxSpeed="1.41" waitingTime="0.00"/>
        <walk depart="102.10" departPos="29.11" arrival="162.25" arrivalPos="29.05" duration="60.15" routeLength="76.20" timeLoss="5.99" maxSpeed="1.41" waitingTime="0.00"/>
    </personinfo>
    <tripinfo id="B2_1.0" depart="64.60" departLane="-361257727#0_1" departPos="8.10" departPosLat="0.00" departSpeed="8.33" departDelay="0.00" arrival="192.10" arrivalLane="-440471861#0_1" arrivalPos="31.52" arrivalPosLat="0.00" arrivalSpeed="27.77" duration="127.50" routeLength="1394.68" waitingTime="0.00" waitingCount="0" stopTime="0.00" timeLoss="10.80" rerouteNo="1" devices="tripinfo_B2_1.0 routing_B2_1.0" vType="jeep" speedFactor="1.00" vaporized=""/>
    <tripinfo id="B2_1.1" depart="75.15" departLane="-361257727#0_1" departPos="5.10" departPosLat="0.00" departSpeed="8.25" departDelay="0.00" arrival="198.40" arrivalLane="-440471861#0_1" arrivalPos="31.52" arrivalPosLat="-0.00" arrivalSpeed="27.51" duration="123.25" routeLength="1397.68" waitingTime="0.00" waitingCount="0" stopTime="0.00" timeLoss="5.09" rerouteNo="1" devices="tripinfo_B2_1.1 routing_B2_1.1" vType="car" speedFactor="0.99" vaporized=""/>
    <tripinfo id="D1_1.3" depart="118.00" departLane="140483224#1_1" departPos="7.20" departPosLat="0.00" departSpeed="28.45" departDelay="0.00" arrival="210.00" arrivalLane="-793339796#2_2" arrivalPos="82.50" arrivalPosLat="0.00" arrivalSpeed="25.44" duration="92.00" routeLength="1646.28" waitingTime="0.00" waitingCount="0" stopTime="0.00" timeLoss="31.83" rerouteNo="1" devices="tripinfo_D1_1.3 routing_D1_1.3" vType="truck" speedFactor="1.02" vaporized=""/>
    <tripinfo id="D3_1.1" depart="100.85" departLane="140483224#1_1" departPos="12.10" departPosLat="0.00" departSpeed="27.78" departDelay="0.00" arrival="214.95" arrivalLane="-440471861#0_2" arrivalPos="31.52" arrivalPosLat="0.00" arrivalSpeed="27.75" duration="114.10" routeLength="1060.97" waitingTime="57.20" waitingCount="1" stopTime="0.00" timeLoss="74.38" rerouteNo="1" devices="tripinfo_D3_1.1 routing_D3_1.1" vType="bus" speedFactor="1.00" vaporized=""/>
    <personinfo id="pf_4.2" depart="90.00" type="ped" speedFactor="0.97" duration="127.00" waitingTime="4.65" timeLoss="16.88" traveltime="127.00">
        <walk depart="90.00" departPos="25.00" arrival="154.20" arrivalPos="29.11" duration="64.20" routeLength="72.15" timeLoss="10.64" maxSpeed="1.35" waitingTime="4.65"/>
        <walk depart="154.20" departPos="29.11" arrival="217.00" arrivalPos="29.05" duration="62.80" routeLength="76.20" timeLoss="6.23" maxSpeed="1.35" waitingTime="0.00"/>
    </personinfo>
    <personinfo id="pf_2.4" depart="180.00" type="ped" speedFactor="1.15" duration="54.30" waitingTime="32.85" timeLoss="35.03" traveltime="54.30">
        <walk depart="180.00" departPos="15.09" arrival="234.30" arrivalPos="3.44" duration="54.30" routeLength="30.72" timeLoss="35.03" maxSpeed="1.59" waitingTime="32.85"/>
    </personinfo>
    <personinfo id="pf_2.2" depart="90.00" type="ped" speedFactor="1.02" duration="145.95" waitingTime="121.75" timeLoss="124.20" traveltime="145.95">
        <walk depart="90.00" departPos="15.09" arrival="235.95" arrivalPos="3.44" duration="145.95" routeLength="30.72" timeLoss="124.20" maxSpeed="1.41" waitingTime="121.75"/>
    </personinfo>
    <personinfo id="pf_2.1" depart="45.00" type="ped" speedFactor="1.00" duration="191.35" waitingTime="166.80" timeLoss="169.19" traveltime="191.35">
        <walk depart="45.00" departPos="15.09" arrival="236.35" arrivalPos="3.44" duration="191.35" routeLength="30.72" timeLoss="169.19" maxSpeed="1.39" waitingTime="166.80"/>
    </personinfo>
    <personinfo id="pf_2.3" depart="135.00" type="ped" speedFactor="0.97" duration="101.85" waitingTime="76.45" timeLoss="78.98" traveltime="101.85">
        <walk depart="135.00" departPos="15.09" arrival="236.85" arrivalPos="3.44" duration="101.85" routeLength="30.72" timeLoss="78.98" maxSpeed="1.34" waitingTime="76.45"/>
    </personinfo>
    <tripinfo id="A3_1.0" depart="107.30" departLane="-793339796#2_2" departPos="5.10" departPosLat="0.00" departSpeed="26.79" departDelay="0.00" arrival="245.35" arrivalLane="-140483224#1_2" arrivalPos="64.04" arrivalPosLat="0.00" arrivalSpeed="26.75" duration="138.05" routeLength="1080.94" waitingTime="81.35" waitingCount="2" stopTime="0.00" timeLoss="96.15" rerouteNo="1" devices="tripinfo_A3_1.0 routing_A3_1.0" vType="car" speedFactor="0.96" vaporized=""/>
    <personinfo id="pf_2.5" depart="225.00" type="ped" speedFactor="0.98" duration="25.05" waitingTime="0.00" timeLoss="2.38" traveltime="25.05">
        <walk depart="225.00" departPos="15.09" arrival="250.05" arrivalPos="3.44" duration="25.05" routeLength="30.72" timeLoss="2.38" maxSpeed="1.36" waitingTime="0.00"/>
    </personinfo>
    <tripinfo id="A3_1.1" depart="148.50" departLane="-793339796#2_1" departPos="7.20" departPosLat="0.00" departSpeed="25.89" departDelay="0.00" arrival="252.15" arrivalLane="-140483224#1_1" arrivalPos="64.04" arrivalPosLat="0.00" arrivalSpeed="25.87" duration="103.65" routeLength="1078.84" waitingTime="27.20" waitingCount="3" stopTime="0.00" timeLoss="60.36" rerouteNo="1" devices="tripinfo_A3_1.1 routing_A3_1.1" vType="truck" speedFactor="0.93" vaporized=""/>
    <personinfo id="pf_1.0" depart="0.00" type="ped" speedFactor="1.06" duration="254.10" waitingTime="19.30" timeLoss="42.40" traveltime="254.10">
        <walk depart="0.00" departPos="25.00" arrival="254.10" arrivalPos="3.44" duration="254.10" routeLength="311.67" timeLoss="42.40" maxSpeed="1.47" waitingTime="19.30"/>
    </personinfo>
    <personinfo id="pf_4.3" depart="135.00" type="ped" speedFactor="0.99" duration="119.75" waitingTime="0.00" timeLoss="11.83" traveltime="119.75">
        <walk depart="135.00" departPos="25.00" arrival="193.20" arrivalPos="29.11" duration="58.20" routeLength="72.15" timeLoss="5.71" maxSpeed="1.37" waitingTime="0.00"/>
        <walk depart="193.20" departPos="29.11" arrival="254.75" arrivalPos="29.05" duration="61.55" routeLength="76.20" timeLoss="6.12" maxSpeed="1.37" waitingTime="0.00"/>
    </personinfo>
    <tripinfo id="C3_1.2" depart="161.95" departLane="440471861#0_1" departPos="5.10" departPosLat="0.00" departSpeed="26.39" departDelay="0.00" arrival="282.55" arrivalLane="-140483224#1_2" arrivalPos="64.04" arrivalPosLat="0.00" arrivalSpeed="26.36" duration="120.60" routeLength="1052.78" waitingTime="70.40" waitingCount="1" stopTime="0.00" timeLoss="79.27" rerouteNo="1" devices="tripinfo_C3_1.2 routing_C3_1.2" vType="car" speedFactor="0.95" vaporized=""/>
    <tripinfo id="C3_1.3" depart="180.75" departLane="440471861#0_1" departPos="8.10" departPosLat="0.00" departSpeed="27.78" departDelay="0.00" arrival="290.60" arrivalLane="-140483224#1_2" arrivalPos="64.04" arrivalPosLat="0.00" arrivalSpeed="27.75" duration="109.85" routeLength="1049.78" waitingTime="48.75" waitingCount="1" stopTime="0.00" timeLoss="70.71" rerouteNo="1" devices="tripinfo_C3_1.3 routing_C3_1.3" vType="jeep" speedFactor="1.00" vaporized=""/>
    <tripinfo id="C2_1.1" depart="161.10" departLane="440471861#0_2" departPos="8.10" departPosLat="0.00" departSpeed="27.78" departDelay="0.00" arrival="294.00" arrivalLane="-145894807#0_1" arrivalPos="260.95" arrivalPosLat="0.00" arrivalSpeed="8.31" duration="132.90" routeLength="1079.06" waitingTime="37.40" waitingCount="1" stopTime="0.00" timeLoss="47.75" rerouteNo="1" devices="tripinfo_C2_1.1 routing_C2_1.1" vType="jeep" speedFactor="1.00" vaporized=""/>
    <personinfo id="pf_4.4" depart="180.00" type="ped" speedFactor="1.02" duration="115.55" waitingTime="0.00" timeLoss="11.24" traveltime="115.55">
        <walk depart="180.00" departPos="25.00" arrival="236.10" arrivalPos="29.11" duration="56.10" routeLength="72.15" timeLoss="5.37" maxSpeed="1.42" waitingTime="0.00"/>
        <walk depart="236.10" departPos="29.11" arrival="295.55" arrivalPos="29.05" duration="59.45" routeLength="76.20" timeLoss="5.87" maxSpeed="1.42" waitingTime="0.00"/>
    </personinfo>
    <tripinfo id="D1_1.5" depart="226.35" departLane="140483224#1_1" departPos="2.30" departPosLat="0.00" departSpeed="26.36" departDelay="0.00" arrival="297.45" arrivalLane="-793339796#2_2" arrivalPos="82.50" arrivalPosLat="0.00" arrivalSpeed="26.33" duration="71.10" routeLength="1651.18" waitingTime="0.00" waitingCount="0" stopTime="0.00" timeLoss="5.98" rerouteNo="1" devices="tripinfo_D1_1.5 routing_D1_1.5" vType="motorcycle" speedFactor="0.95" vaporized=""/>
    <tripinfo id="D1_1.4" depart="178.90" departLane="140483224#1_1" departPos="5.10" departPosLat="0.00" departSpeed="26.12" departDelay="0.00" arrival="306.65" arrivalLane="-793339796#2_1" arrivalPos="82.50" arrivalPosLat="0.00" arrivalSpeed="26.11" duration="127.75" routeLength="1648.38" waitingTime="37.45" waitingCount="2" stopTime="0.00" timeLoss="62.13" rerouteNo="1" devices="tripinfo_D1_1.4 routing_D1_1.4" vType="car" speedFactor="0.94" vaporized=""/>
    <tripinfo id="C1_1.2" depart="231.00" departLane="440471861#0_1" departPos="2.30" departPosLat="0.00" departSpeed="28.47" departDelay="0.00" arrival="310.75" arrivalLane="-793339796#2_2" arrivalPos="82.50" arrivalPosLat="0.00" arrivalSpeed="28.45" duration="79.75" routeLength="1656.79" waitingTime="0.00" waitingCount="0" stopTime="0.00" timeLoss="20.40" rerouteNo="1" devices="tripinfo_C1_1.2 routing_C1_1.2" vType="tricycle" speedFactor="1.02" vaporized=""/>
    <tripinfo id="B2_1.2" depart="198.55" departLane="-361257727#0_1" departPos="8.10" departPosLat="0.00" departSpeed="8.33" departDelay="0.00" arrival="326.15" arrivalLane="-440471861#0_1" arrivalPos="31.52" arrivalPosLat="0.00" arrivalSpeed="27.78" duration="127.60" routeLength="1394.68" waitingTime="0.00" waitingCount="0" stopTime="0.00" timeLoss="10.91" rerouteNo="1" devices="tripinfo_B2_1.2 routing_B2_1.2" vType="jeep" speedFactor="1.00" vaporized=""/>
    <tripinfo id="A1_1.0" depart="229.30" departLane="-793339796#2_1" departPos="8.10" departPosLat="0.00" departSpeed="27.78" departDelay="6.65" arrival="329.50" arrivalLane="-145894807#0_1" arrivalPos="260.95" arrivalPosLat="0.00" arrivalSpeed="8.30" duration="100.20" routeLength="1053.72" waitingTime="1.60" waitingCount="1" stopTime="0.00" timeLoss="10.80" rerouteNo="1" devices="tripinfo_A1_1.0 routing_A1_1.0" vType="jeep" speedFactor="1.00" vaporized=""/>
    <personinfo id="pf_4.5" depart="225.00" type="ped" speedFactor="1.01" duration="117.20" waitingTime="0.00" timeLoss="11.52" traveltime="117.20">
        <walk depart="225.00" departPos="25.00" arrival="282.00" arrivalPos="29.11" duration="57.00" routeLength="72.15" timeLoss="5.60" maxSpeed="1.40" waitingTime="0.00"/>
        <walk depart="282.00" departPos="29.11" arrival="342.20" arrivalPos="29.05" duration="60.20" routeLength="76.20" timeLoss="5.92" maxSpeed="1.40" waitingTime="0.00"/>
    </personinfo>
    <tripinfo id="B1_1.0" depart="171.30" departLane="-361257727#0_1" departPos="8.10" departPosLat="0.00" departSpeed="8.33" departDelay="0.00" arrival="342.50" arrivalLane="-793339796#2_2" arrivalPos="82.50" arrivalPosLat="0.00" arrivalSpeed="24.49" duration="171.20" routeLength="1912.44" waitingTime="0.65" waitingCount="1" stopTime="0.00" timeLoss="36.92" rerouteNo="1" devices="tripinfo_B1_1.0 routing_B1_1.0" vType="jeep" speedFactor="1.00" vaporized=""/>
    <tripinfo id="D3_1.2" depart="208.30" departLane="140483224#1_1" departPos="2.30" departPosLat="0.00" departSpeed="24.40" departDelay="0.00" arrival="355.60" arrivalLane="-440471861#0_2" arrivalPos="31.52" arrivalPosLat="0.00" arrivalSpeed="24.37" duration="147.30" routeLength="1070.77" waitingTime="94.25" waitingCount="1" stopTime="0.00" timeLoss="101.67" rerouteNo="1" devices="tripinfo_D3_1.2 routing_D3_1.2" vType="tricycle" speedFactor="0.88" vaporized=""/>
    <tripinfo id="A2_1.1" depart="256.95" departLane="-793339796#2_1" departPos="5.10" departPosLat="0.00" departSpeed="29.15" departDelay="4.60" arrival="371.75" arrivalLane="-440471861#0_1" arrivalPos="31.52" arrivalPosLat="0.00" arrivalSpeed="29.11" duration="114.80" routeLength="1081.27" waitingTime="66.40" waitingCount="1" stopTime="0.00" timeLoss="77.67" rerouteNo="1" devices="tripinfo_A2_1.1 routing_A2_1.1" vType="car" speedFactor="1.05" vaporized=""/>
    <tripinfo id="A3_1.2" depart="229.30" departLane="-793339796#2_2" departPos="5.10" departPosLat="0.00" departSpeed="28.21" departDelay="2.15" arrival="372.20" arrivalLane="-140483224#1_2" arrivalPos="64.04" arrivalPosLat="0.00" arrivalSpeed="28.20" duration="142.90" routeLength="1080.94" waitingTime="88.15" waitingCount="2" stopTime="0.00" timeLoss="103.09" rerouteNo="1" devices="tripinfo_A3_1.2 routing_A3_1.2" vType="car" speedFactor="1.02" vaporized=""/>
    <tripinfo id="A3_1.3" depart="256.95" departLane="-793339796#2_2" departPos="2.30" departPosLat="0.00" departSpeed="26.97" departDelay="0.15" arrival="375.65" arrivalLane="-140483224#1_2" arrivalPos="64.04" arrivalPosLat="0.00" arrivalSpeed="26.96" duration="118.70" routeLength="1083.74" waitingTime="63.55" waitingCount="1" stopTime="0.00" timeLoss="76.97" rerouteNo="1" devices="tripinfo_A3_1.3 routing_A3_1.3" vType="tricycle" speedFactor="0.97" vaporized=""/>
    <tripinfo id="A2_1.3" depart="270.95" departLane="-793339796#2_2" departPos="5.10" departPosLat="0.00" departSpeed="27.11" departDelay="5.70" arrival="375.80" arrivalLane="-440471861#0_2" arrivalPos="31.52" arrivalPosLat="0.00" arrivalSpeed="27.11" duration="104.85" routeLength="1081.27" waitingTime="48.65" waitingCount="1" stopTime="0.00" timeLoss="64.95" rerouteNo="1" devices="tripinfo_A2_1.3 routing_A2_1.3" vType="car" speedFactor="0.98" vaporized=""/>
    <tripinfo id="A3_1.4" depart="289.75" departLane="-793339796#2_1" departPos="2.30" departPosLat="0.00" departSpeed="29.51" departDelay="0.00" arrival="376.70" arrivalLane="-140483224#1_2" arrivalPos="64.04" arrivalPosLat="0.00" arrivalSpeed="29.40" duration="86.95" routeLength="1083.74" waitingTime="33.35" waitingCount="1" stopTime="0.00" timeLoss="48.79" rerouteNo="1" devices="tripinfo_A3_1.4 routing_A3_1.4" vType="motorcycle" speedFactor="1.06" vaporized=""/>
    <tripinfo id="D2_1.0" depart="290.30" departLane="140483224#1_1" departPos="8.10" departPosLat="0.00" departSpeed="27.78" departDelay="0.00" arrival="378.40" arrivalLane="-145894807#0_1" arrivalPos="260.95" arrivalPosLat="0.00" arrivalSpeed="8.32" duration="88.10" routeLength="1089.76" waitingTime="0.00" waitingCount="0" stopTime="0.00" timeLoss="2.94" rerouteNo="1" devices="tripinfo_D2_1.0 routing_D2_1.0" vType="jeep" speedFactor="1.00" vaporized=""/>
    <tripinfo id="A2_1.2" depart="270.95" departLane="-793339796#2_1" departPos="8.10" departPosLat="0.00" departSpeed="27.78" departDelay="9.50" arrival="381.00" arrivalLane="-440471861#0_1" arrivalPos="31.52" arrivalPosLat="0.00" arrivalSpeed="27.76" duration="110.05" routeLength="1078.27" waitingTime="48.10" waitingCount="1" stopTime="0.00" timeLoss="71.20" rerouteNo="1" devices="tripinfo_A2_1.2 routing_A2_1.2" vType="jeep" speedFactor="1.00" vaporized=""/>
    <personinfo id="pf_4.6" depart="270.00" type="ped" speedFactor="0.97" duration="121.95" waitingTime="0.05" timeLoss="12.13" traveltime="121.95">
        <walk depart="270.00" departPos="25.00" arrival="329.35" arrivalPos="29.11" duration="59.35" routeLength="72.15" timeLoss="5.94" maxSpeed="1.35" waitingTime="0.05"/>
        <walk depart="329.35" departPos="29.11" arrival="391.95" arrivalPos="29.05" duration="62.60" routeLength="76.20" timeLoss="6.19" maxSpeed="1.35" waitingTime="0.00"/>
    </personinfo>
    <tripinfo id="C1_1.3" depart="288.55" departLane="440471861#0_1" departPos="2.30" departPosLat="0.00" departSpeed="24.80" departDelay="0.00" arrival="418.45" arrivalLane="-793339796#2_2" arrivalPos="82.50" arrivalPosLat="0.00" arrivalSpeed="24.77" duration="129.90" routeLength="1656.79" waitingTime="54.95" waitingCount="1" stopTime="0.00" timeLoss="61.81" rerouteNo="1" devices="tripinfo_C1_1.3 routing_C1_1.3" vType="motorcycle" speedFactor="0.89" vaporized=""/>
    <tripinfo id="A1_1.1" depart="322.60" departLane="-793339796#2_1" departPos="7.20" departPosLat="0.00" departSpeed="26.48" departDelay="0.00" arrival="420.50" arrivalLane="-145894807#0_1" arrivalPos="260.95" arrivalPosLat="0.00" arrivalSpeed="7.93" duration="97.90" routeLength="1054.62" waitingTime="0.00" waitingCount="0" stopTime="0.00" timeLoss="4.02" rerouteNo="1" devices="tripinfo_A1_1.1 routing_A1_1.1" vType="truck" speedFactor="0.95" vaporized=""/>
    <personinfo id="pf_4.7" depart="315.00" type="ped" speedFactor="1.04" duration="118.10" waitingTime="4.00" timeLoss="15.45" traveltime="118.10">
        <walk depart="315.00" departPos="25.00" arrival="370.40" arrivalPos="29.11" duration="55.40" routeLength="72.15" timeLoss="5.48" maxSpeed="1.45" waitingTime="0.00"/>
        <walk depart="370.40" departPos="29.11" arrival="433.10" arrivalPos="29.05" duration="62.70" routeLength="76.20" timeLoss="9.97" maxSpeed="1.45" waitingTime="4.00"/>
    </personinfo>
    <tripinfo id="A1_1.2" depart="329.65" departLane="-793339796#2_1" departPos="5.10" departPosLat="0.00" departSpeed="23.93" departDelay="0.00" arrival="436.50" arrivalLane="-145894807#0_1" arrivalPos="260.95" arrivalPosLat="0.00" arrivalSpeed="7.16" duration="106.85" routeLength="1056.72" waitingTime="0.00" waitingCount="0" stopTime="0.00" timeLoss="2.94" rerouteNo="1" devices="tripinfo_A1_1.2 routing_A1_1.2" vType="car" speedFactor="0.86" vaporized=""/>
    <tripinfo id="C1_1.4" depart="324.05" departLane="440471861#0_1" departPos="8.10" departPosLat="0.00" departSpeed="27.78" departDelay="0.00" arrival="437.35" arrivalLane="-793339796#2_2" arrivalPos="82.50" arrivalPosLat="0.00" arrivalSpeed="24.35" duration="113.30" routeLength="1650.99" waitingTime="19.10" waitingCount="1" stopTime="0.00" timeLoss="52.75" rerouteNo="1" devices="tripinfo_C1_1.4 routing_C1_1.4" vType="jeep" speedFactor="1.00" vaporized=""/>
    <tripinfo id="C2_1.2" depart="289.65" departLane="440471861#0_2" departPos="2.30" departPosLat="0.00" departSpeed="26.42" departDelay="0.00" arrival="438.20" arrivalLane="-145894807#0_1" arrivalPos="260.95" arrivalPosLat="0.00" arrivalSpeed="7.79" duration="148.55" routeLength="1084.86" waitingTime="55.00" waitingCount="1" stopTime="0.00" timeLoss="58.79" rerouteNo="1" devices="tripinfo_C2_1.2 routing_C2_1.2" vType="motorcycle" speedFactor="0.95" vaporized=""/>
    <tripinfo id="A1_1.3" depart="346.45" departLane="-793339796#2_1" departPos="7.20" departPosLat="0.00" departSpeed="24.06" departDelay="4.05" arrival="441.10" arrivalLane="-145894807#0_1" arrivalPos="260.95" arrivalPosLat="0.00" arrivalSpeed="8.28" duration="94.65" routeLength="1054.62" waitingTime="0.00" waitingCount="0" stopTime="0.00" timeLoss="4.94" rerouteNo="1" devices="tripinfo_A1_1.3 routing_A1_1.3" vType="truck" speedFactor="1.00" vaporized=""/>
    <tripinfo id="D1_1.6" depart="370.50" departLane="140483224#1_1" departPos="7.20" departPosLat="0.00" departSpeed="29.37" departDelay="0.00" arrival="453.85" arrivalLane="-793339796#2_2" arrivalPos="82.50" arrivalPosLat="0.00" arrivalSpeed="25.38" duration="83.35" routeLength="1646.28" waitingTime="0.00" waitingCount="0" stopTime="0.00" timeLoss="25.08" rerouteNo="1" devices="tripinfo_D1_1.6 routing_D1_1.6" vType="truck" speedFactor="1.06" vaporized=""/>
    <personinfo id="pf_1.3" depart="135.00" type="ped" speedFactor="1.08" duration="319.95" waitingTime="89.80" timeLoss="112.69" traveltime="319.95">
        <walk depart="135.00" departPos="25.00" arrival="454.95" arrivalPos="3.44" duration="319.95" routeLength="311.67" timeLoss="112.69" maxSpeed="1.50" waitingTime="89.80"/>
    </personinfo>
    <personinfo id="pf_2.7" depart="315.00" type="ped" speedFactor="1.04" duration="140.65" waitingTime="116.95" timeLoss="119.44" traveltime="140.65">
        <walk depart="315.00" departPos="15.09" arrival="455.65" arrivalPos="3.44" duration="140.65" routeLength="30.72" timeLoss="119.44" maxSpeed="1.45" waitingTime="116.95"/>
    </personinfo>
    <personinfo id="pf_1.2" depart="90.00" type="ped" speedFactor="1.01" duration="366.10" waitingTime="119.45" timeLoss="144.00" traveltime="366.10">
        <walk depart="90.00" departPos="25.00" arrival="456.10" arrivalPos="3.44" duration="366.10" routeLength="311.67" timeLoss="144.00" maxSpeed="1.40" waitingTime="119.45"/>
    </personinfo>
    <personinfo id="pf_2.6" depart="270.00" type="ped" speedFactor="1.00" duration="186.30" waitingTime="161.90" timeLoss="164.22" traveltime="186.30">
        <walk depart="270.00" departPos="15.09" arrival="456.30" arrivalPos="3.44" duration="186.30" routeLength="30.72" timeLoss="164.22" maxSpeed="1.39" waitingTime="161.90"/>
    </personinfo>
    <personinfo id="pf_2.9" depart="405.00" type="ped" speedFactor="1.02" duration="51.60" waitingTime="27.55" timeLoss="29.96" traveltime="51.60">
        <walk depart="405.00" departPos="15.09" arrival="456.60" arrivalPos="3.44" duration="51.60" routeLength="30.72" timeLoss="29.96" maxSpeed="1.42" waitingTime="27.55"/>
    </personinfo>
    <personinfo id="pf_2.8" depart="360.00" type="ped" speedFactor="1.01" duration="96.90" waitingTime="72.45" timeLoss="74.94" traveltime="96.90">
        <walk depart="360.00" departPos="15.09" arrival="456.90" arrivalPos="3.44" duration="96.90" routeLength="30.72" timeLoss="74.94" maxSpeed="1.40" waitingTime="72.45"/>
    </personinfo>
    <personinfo id="pf_1.1" depart="45.00" type="ped" speedFactor="0.94" duration="413.15" waitingTime="147.35" timeLoss="173.99" traveltime="413.15">
        <walk depart="45.00" departPos="25.00" arrival="458.15" arrivalPos="3.44" duration="413.15" routeLength="311.67" timeLoss="173.99" maxSpeed="1.30" waitingTime="147.35"/>
    </personinfo>
    <personinfo id="pf_4.8" depart="360.00" type="ped" speedFactor="1.14" duration="104.05" waitingTime="0.00" timeLoss="10.34" traveltime="104.05">
        <walk depart="360.00" departPos="25.00" arrival="410.70" arrivalPos="29.11" duration="50.70" routeLength="72.15" timeLoss="5.12" maxSpeed="1.58" waitingTime="0.00"/>
        <walk depart="410.70" departPos="29.11" arrival="464.05" arrivalPos="29.05" duration="53.35" routeLength="76.20" timeLoss="5.22" maxSpeed="1.58" waitingTime="0.00"/>
    </personinfo>
    <tripinfo id="C2_1.3" depart="379.20" departLane="440471861#0_2" departPos="5.10" departPosLat="0.00" departSpeed="28.18" departDelay="0.00" arrival="465.25" arrivalLane="-145894807#0_1" arrivalPos="260.95" arrivalPosLat="0.00" arrivalSpeed="8.41" duration="86.05" routeLength="1082.06" waitingTime="0.00" waitingCount="0" stopTime="0.00" timeLoss="2.05" rerouteNo="1" devices="tripinfo_C2_1.3 routing_C2_1.3" vType="car" speedFactor="1.01" vaporized=""/>