<?xml version="1.0" encoding="UTF-8"?>

<!-- generated on 2026-02-14 06:14:56 by Eclipse SUMO sumo Version 1.24.0
<sumoConfiguration xmlns:xsi="http://www.w3.org/2001/XMLSchema-instance" xsi:noNamespaceSchemaLocation="http://sumo.dlr.de/xsd/sumoConfiguration.xsd">

    <input>
        <net-file value="Olivarez_traci\network/map1.net.xml"/>
        <route-files value="Olivarez_traci\demand/flows_traffic_jam.rou.xml"/>
        <additional-files value="Olivarez_traci\additionals/map.poly.xml,Olivarez_traci\ additionals/detectors.add.xml"/>
    </input>

    <output>
        <tripinfo-output value="Olivarez_traci\output_DDPG\baseline_jam_SD_DDPG_trips.xml"/>
        <statistic-output value="Olivarez_traci\output_DDPG\baseline_jam_SD_DDPG_stats.xml"/>
    </output>

    <time>
        <begin value="0"/>
        <end value="10800"/>
        <step-length value="0.05"/>
    </time>

    <processing>
        <lateral-resolution value="0.1"/>
        <collision.action value="none"/>
        <collision.check-junctions value="false"/>
        <collision.mingap-factor value="0"/>
    </processing>

    <report>
        <no-warnings value="true"/>
    </report>

    <traci_server>
        <remote-port value="53862"/>
    </traci_server>

    <gui_only>
        <delay value="0"/>
    </gui_only>

</sumoConfiguration>
-->

<tripinfos xmlns:xsi="http://www.w3.org/2001/XMLSchema-instance" xsi:noNamespaceSchemaLocation="http://sumo.dlr.de/xsd/tripinfo_file.xsd">
    <personinfo id="pf_2.0" depart="0.00" type="ped" speedFactor="0.83" duration="29.80" waitingTime="0.00" timeLoss="3.01" traveltime="29.80">
        <walk depart="0.00" departPos="15.09" arrival="29.80" arrivalPos="3.44" duration="29.80" routeLength="30.72" timeLoss="3.01" maxSpeed="1.15" waitingTime="0.00"/>
    </personinfo>
    <personinfo id="pf_2.1" depart="15.00" type="ped" speedFactor="0.87" duration="28.10" waitingTime="0.00" timeLoss="2.75" traveltime="28.10">
        <walk depart="15.00" departPos="15.09" arrival="43.10" arrivalPos="3.44" duration="28.10" routeLength="30.72" timeLoss="2.75" maxSpeed="1.21" waitingTime="0.00"/>
    </personinfo>
    <tripinfo id="D3_1.0" depart="7.65" departLane="140483224#1_2" departPos="5.10" departPosLat="0.00" departSpeed="27.02" departDelay="0.00" arrival="61.80" arrivalLane="-440471861#0_2" arrivalPos="31.52" arrivalPosLat="0.00" arrivalSpeed="27.01" duration="54.15" routeLength="1067.97" waitingTime="4.85" waitingCount="1" stopTime="0.00" timeLoss="13.02" rerouteNo="1" devices="tripinfo_D3_1.0 routing_D3_1.0" vType="car" speedFactor="0.97" vaporized=""/>
    <tripinfo id="A2_1.1" depart="8.20" departLane="-793339796#2_1" departPos="2.30" departPosLat="0.00" departSpeed="29.35" departDelay="0.00" arrival="76.75" arrivalLane="-440471861#0_2" arrivalPos="31.52" arrivalPosLat="0.00" arrivalSpeed="29.33" duration="68.55" routeLength="1084.07" waitingTime="22.40" waitingCount="2" stopTime="0.00" timeLoss="31.60" rerouteNo="1" devices="tripinfo_A2_1.1 routing_A2_1.1" vType="motorcycle" speedFactor="1.06" vaporized=""/>
    <tripinfo id="A2_1.0" depart="4.45" departLane="-793339796#2_1" departPos="5.10" departPosLat="0.00" departSpeed="29.34" departDelay="0.00" arrival="81.25" arrivalLane="-440471861#0_1" arrivalPos="31.52" arrivalPosLat="-0.00" arrivalSpeed="29.33" duration="76.80" routeLength="1081.27" waitingTime="23.05" waitingCount="2" stopTime="0.00" timeLoss="39.90" rerouteNo="1" devices="tripinfo_A2_1.0 routing_A2_1.0" vType="car" speedFactor="1.06" vaporized=""/>
    <tripinfo id="A3_1.0" depart="15.50" departLane="-793339796#2_2" departPos="5.10" departPosLat="0.00" departSpeed="27.37" departDelay="0.00" arrival="82.60" arrivalLane="-140483224#1_2" arrivalPos="64.04" arrivalPosLat="0.00" arrivalSpeed="27.34" duration="67.10" routeLength="1080.94" waitingTime="12.40" waitingCount="1" stopTime="0.00" timeLoss="26.07" rerouteNo="1" devices="tripinfo_A3_1.0 routing_A3_1.0" vType="car" speedFactor="0.99" vaporized=""/>
    <tripinfo id="A2_1.2" depart="20.70" departLane="-793339796#2_1" departPos="2.30" departPosLat="0.00" departSpeed="26.42" departDelay="0.00" arrival="85.35" arrivalLane="-440471861#0_1" arrivalPos="31.52" arrivalPosLat="0.00" arrivalSpeed="26.39" duration="64.65" routeLength="1084.07" waitingTime="8.75" waitingCount="1" stopTime="0.00" timeLoss="23.61" rerouteNo="1" devices="tripinfo_A2_1.2 routing_A2_1.2" vType="tricycle" speedFactor="0.95" vaporized=""/>
    <tripinfo id="A2_1.3" depart="29.20" departLane="-793339796#2_1" departPos="7.20" departPosLat="0.00" departSpeed="27.71" departDelay="2.15" arrival="90.20" arrivalLane="-440471861#0_1" arrivalPos="31.52" arrivalPosLat="0.00" arrivalSpeed="27.70" duration="61.00" routeLength="1079.17" waitingTime="0.00" waitingCount="0" stopTime="0.00" timeLoss="22.01" rerouteNo="1" devices="tripinfo_A2_1.3 routing_A2_1.3" vType="truck" speedFactor="1.00" vaporized=""/>
    <tripinfo id="A3_1.1" depart="30.50" departLane="-793339796#2_2" departPos="12.10" departPosLat="0.00" departSpeed="27.78" departDelay="0.00" arrival="90.55" arrivalLane="-140483224#1_2" arrivalPos="64.04" arrivalPosLat="0.00" arrivalSpeed="27.76" duration="60.05" routeLength="1073.94" waitingTime="0.00" waitingCount="0" stopTime="0.00" timeLoss="19.90" rerouteNo="1" devices="tripinfo_A3_1.1 routing_A3_1.1" vType="bus" speedFactor="1.00" vaporized=""/>
    <tripinfo id="D1_1.0" depart="0.60" departLane="140483224#1_1" departPos="5.10" departPosLat="0.00" departSpeed="24.93" departDelay="0.00" arrival="91.00" arrivalLane="-793339796#2_2" arrivalPos="82.50" arrivalPosLat="0.00" arrivalSpeed="24.90" duration="90.40" routeLength="1648.38" waitingTime="3.85" waitingCount="1" stopTime="0.00" timeLoss="21.67" rerouteNo="1" devices="tripinfo_D1_1.0 routing_D1_1.0" vType="car" speedFactor="0.90" vaporized=""/>
    <personinfo id="pf_4.0" depart="0.00" type="ped" speedFactor="1.11" duration="106.90" waitingTime="0.00" timeLoss="10.70" traveltime="106.90">
        <walk depart="0.00" departPos="25.00" arrival="51.95" arrivalPos="29.11" duration="51.95" routeLength="72.15" timeLoss="5.16" maxSpeed="1.54" waitingTime="0.00"/>
        <walk depart="51.95" departPos="29.11" arrival="106.90" arrivalPos="29.05" duration="54.95" routeLength="76.20" timeLoss="5.54" maxSpeed="1.54" waitingTime="0.00"/>
    </personinfo>
    <tripinfo id="B2_1.0" depart="6.95" departLane="-361257727#0_1" departPos="5.10" departPosLat="0.00" departSpeed="8.38" departDelay="0.00" arrival="128.50" arrivalLane="-440471861#0_1" arrivalPos="31.52" arrivalPosLat="-0.00" arrivalSpeed="27.91" duration="121.55" routeLength="1397.68" waitingTime="0.00" waitingCount="0" stopTime="0.00" timeLoss="5.22" rerouteNo="1" devices="tripinfo_B2_1.0 routing_B2_1.0" vType="car" speedFactor="1.01" vaporized=""/>
    <tripinfo id="C1_1.0" depart="17.65" departLane="440471861#0_1" departPos="2.30" departPosLat="0.00" departSpeed="28.93" departDelay="0.00" arrival="131.05" arrivalLane="-793339796#2_2" arrivalPos="82.50" arrivalPosLat="0.00" arrivalSpeed="28.82" duration="113.40" routeLength="1656.79" waitingTime="30.40" waitingCount="2" stopTime="0.00" timeLoss="55.07" rerouteNo="1" devices="tripinfo_C1_1.0 routing_C1_1.0" vType="motorcycle" speedFactor="1.04" vaporized=""/>
    <tripinfo id="C1_1.1" depart="28.55" departLane="440471861#0_1" departPos="5.10" departPosLat="0.00" departSpeed="26.25" departDelay="0.00" arrival="140.15" arrivalLane="-793339796#2_2" arrivalPos="82.50" arrivalPosLat="0.00" arrivalSpeed="26.23" duration="111.60" routeLength="1653.99" waitingTime="20.85" waitingCount="1" stopTime="0.00" timeLoss="47.41" rerouteNo="1" devices="tripinfo_C1_1.1 routing_C1_1.1" vType="car" speedFactor="0.94" vaporized=""/>
    <tripinfo id="B2_1.1" depart="31.00" departLane="-361257727#0_1" departPos="2.30" departPosLat="0.00" departSpeed="9.48" departDelay="0.00" arrival="141.15" arrivalLane="-440471861#0_1" arrivalPos="31.52" arrivalPosLat="-0.00" arrivalSpeed="31.60" duration="110.15" routeLength="1400.48" waitingTime="0.00" waitingCount="0" stopTime="0.00" timeLoss="7.02" rerouteNo="1" devices="tripinfo_B2_1.1 routing_B2_1.1" vType="tricycle" speedFactor="1.14" vaporized=""/>
    <tripinfo id="C3_1.2" depart="43.55" departLane="440471861#0_1" departPos="5.10" departPosLat="0.00" departSpeed="27.08" departDelay="0.00" arrival="142.45" arrivalLane="-140483224#1_1" arrivalPos="64.04" arrivalPosLat="0.00" arrivalSpeed="31.73" duration="98.90" routeLength="1052.78" waitingTime="38.35" waitingCount="2" stopTime="0.00" timeLoss="64.61" rerouteNo="1" devices="tripinfo_C3_1.2 routing_C3_1.2" vType="car" speedFactor="1.14" vaporized=""/>
    <tripinfo id="C3_1.0" depart="11.40" departLane="440471861#0_1" departPos="12.10" departPosLat="0.00" departSpeed="27.78" departDelay="0.00" arrival="144.70" arrivalLane="-140483224#1_2" arrivalPos="64.04" arrivalPosLat="0.00" arrivalSpeed="27.76" duration="133.30" routeLength="1045.78" waitingTime="77.05" waitingCount="1" stopTime="0.00" timeLoss="94.30" rerouteNo="1" devices="tripinfo_C3_1.0 routing_C3_1.0" vType="bus" speedFactor="1.00" vaporized=""/>
    <tripinfo id="C3_1.3" depart="54.65" departLane="440471861#0_1" departPos="5.10" departPosLat="0.00" departSpeed="29.67" departDelay="0.00" arrival="146.05" arrivalLane="-140483224#1_1" arrivalPos="64.04" arrivalPosLat="0.00" arrivalSpeed="29.63" duration="91.40" routeLength="1052.78" waitingTime="27.75" waitingCount="2" stopTime="0.00" timeLoss="54.70" rerouteNo="1" devices="tripinfo_C3_1.3 routing_C3_1.3" vType="car" speedFactor="1.07" vaporized=""/>
    <tripinfo id="C3_1.1" depart="23.60" departLane="440471861#0_1" departPos="7.20" departPosLat="0.00" departSpeed="26.64" departDelay="0.00" arrival="146.25" arrivalLane="-140483224#1_2" arrivalPos="64.04" arrivalPosLat="0.00" arrivalSpeed="26.62" duration="122.65" routeLength="1050.68" waitingTime="60.45" waitingCount="1" stopTime="0.00" timeLoss="81.79" rerouteNo="1" devices="tripinfo_C3_1.1 routing_C3_1.1" vType="truck" speedFactor="0.96" vaporized=""/>
    <personinfo id="pf_4.1" depart="15.00" type="ped" speedFactor="1.02" duration="133.55" waitingTime="17.25" timeLoss="28.36" traveltime="133.55">
        <walk depart="15.00" departPos="25.00" arrival="71.55" arrivalPos="29.11" duration="56.55" routeLength="72.15" timeLoss="5.39" maxSpeed="1.41" waitingTime="0.00"/>
        <walk depart="71.55" departPos="29.11" arrival="148.55" arrivalPos="29.05" duration="77.00" routeLength="76.20" timeLoss="22.97" maxSpeed="1.41" waitingTime="17.25"/>
    </personinfo>
    <tripinfo id="C2_1.0" depart="20.15" departLane="440471861#0_2" departPos="8.10" departPosLat="0.00" departSpeed="27.78" departDelay="0.00" arrival="148.65" arrivalLane="-145894807#0_1" arrivalPos="260.95" arrivalPosLat="0.00" arrivalSpeed="8.30" duration="128.50" routeLength="1079.06" waitingTime="33.10" waitingCount="1" stopTime="0.00" timeLoss="43.34" rerouteNo="1" devices="tripinfo_C2_1.0 routing_C2_1.0" vType="jeep" speedFactor="1.00" vaporized=""/>
    <tripinfo id="C1_1.4" depart="71.00" departLane="440471861#0_1" departPos="5.10" departPosLat="0.00" departSpeed="28.30" departDelay="0.00" arrival="149.10" arrivalLane="-793339796#2_1" arrivalPos="82.50" arrivalPosLat="0.00" arrivalSpeed="28.24" duration="78.10" routeLength="1653.99" waitingTime="0.00" waitingCount="0" stopTime="0.00" timeLoss="18.51" rerouteNo="1" devices="tripinfo_C1_1.4 routing_C1_1.4" vType="car" speedFactor="1.02" vaporized=""/>
    <tripinfo id="C3_1.4" depart="78.25" departLane="440471861#0_1" departPos="5.10" departPosLat="0.00" departSpeed="23.65" departDelay="0.00" arrival="150.05" arrivalLane="-140483224#1_2" arrivalPos="64.04" arrivalPosLat="0.00" arrivalSpeed="23.62" duration="71.80" routeLength="1052.78" waitingTime="6.90" waitingCount="1" stopTime="0.00" timeLoss="25.69" rerouteNo="1" devices="tripinfo_C3_1.4 routing_C3_1.4" vType="car" speedFactor="0.85" vaporized=""/>
    <tripinfo id="C2_1.1" depart="27.30" departLane="440471861#0_2" departPos="2.30" departPosLat="0.00" departSpeed="28.06" departDelay="0.00" arrival="150.90" arrivalLane="-145894807#0_1" arrivalPos="260.95" arrivalPosLat="0.00" arrivalSpeed="8.40" duration="123.60" routeLength="1084.86" waitingTime="24.90" waitingCount="1" stopTime="0.00" timeLoss="39.08" rerouteNo="1" devices="tripinfo_C2_1.1 routing_C2_1.1" vType="tricycle" speedFactor="1.01" vaporized=""/>
    <tripinfo id="C1_1.3" depart="41.05" departLane="440471861#0_1" departPos="2.30" departPosLat="0.00" departSpeed="29.34" departDelay="0.00" arrival="151.15" arrivalLane="-793339796#2_2" arrivalPos="82.50" arrivalPosLat="-0.00" arrivalSpeed="29.27" duration="110.10" routeLength="1656.79" waitingTime="20.35" waitingCount="1" stopTime="0.00" timeLoss="52.59" rerouteNo="1" devices="tripinfo_C1_1.3 routing_C1_1.3" vType="motorcycle" speedFactor="1.06" vaporized=""/>
    <tripinfo id="C1_1.2" depart="31.85" departLane="440471861#0_1" departPos="8.10" departPosLat="0.00" departSpeed="27.78" departDelay="0.00" arrival="151.40" arrivalLane="-793339796#2_1" arrivalPos="82.50" arrivalPosLat="-0.00" arrivalSpeed="24.15" duration="119.55" routeLength="1650.99" waitingTime="18.20" waitingCount="1" stopTime="0.00" timeLoss="59.04" rerouteNo="1" devices="tripinfo_C1_1.2 routing_C1_1.2" vType="jeep" speedFactor="1.00" vaporized=""/>
    <tripinfo id="C3_1.5" depart="104.00" departLane="440471861#0_1" departPos="5.10" departPosLat="0.00" departSpeed="27.88" departDelay="0.00" arrival="151.40" arrivalLane="-140483224#1_1" arrivalPos="64.04" arrivalPosLat="0.00" arrivalSpeed="26.77" duration="47.40" routeLength="1052.78" waitingTime="0.00" waitingCount="0" stopTime="0.00" timeLoss="8.29" rerouteNo="1" devices="tripinfo_C3_1.5 routing_C3_1.5" vType="car" speedFactor="1.00" vaporized=""/>
    <personinfo id="pf_4.2" depart="30.00" type="ped" speedFactor="1.01" duration="122.15" waitingTime="4.70" timeLoss="16.47" traveltime="122.15">
        <walk depart="30.00" departPos="25.00" arrival="91.95" arrivalPos="29.11" duration="61.95" routeLength="72.15" timeLoss="10.55" maxSpeed="1.40" waitingTime="4.70"/>
        <walk depart="91.95" departPos="29.11" arrival="152.15" arrivalPos="29.05" duration="60.20" routeLength="76.20" timeLoss="5.92" maxSpeed="1.40" waitingTime="0.00"/>
    </personinfo>
    <personinfo id="pf_4.4" depart="60.00" type="ped" speedFactor="1.05" duration="116.35" waitingTime="3.20" timeLoss="14.28" traveltime="116.35">
        <walk depart="60.00" departPos="25.00" arrival="118.25" arrivalPos="29.11" duration="58.25" routeLength="72.15" timeLoss="8.61" maxSpeed="1.45" waitingTime="3.20"/>
        <walk depart="118.25" departPos="29.11" arrival="176.35" arrivalPos="29.05" duration="58.10" routeLength="76.20" timeLoss="5.67" maxSpeed="1.45" waitingTime="0.00"/>
    </personinfo>
    <personinfo id="pf_4.5" depart="75.00" type="ped" speedFactor="1.12" duration="108.25" waitingTime="3.00" timeLoss="13.26" traveltime="108.25">
        <walk depart="75.00" departPos="25.00" arrival="126.15" arrivalPos="29.11" duration="51.15" routeLength="72.15" timeLoss="4.95" maxSpeed="1.56" waitingTime="0.00"/>
        <walk depart="126.15" departPos="29.11" arrival="183.25" arrivalPos="29.05" duration="57.10" routeLength="76.20" timeLoss="8.31" maxSpeed="1.56" waitingTime="3.00"/>
    </personinfo>
    <tripinfo id="A1_1.0" depart="78.95" departLane="-793339796#2_1" departPos="2.30" departPosLat="0.00" departSpeed="26.46" departDelay="0.00" arrival="188.35" arrivalLane="-145894807#0_1" arrivalPos="260.95" arrivalPosLat="0.00" arrivalSpeed="7.93" duration="109.40" routeLength="1059.52" waitingTime="3.00" waitingCount="2" stopTime="0.00" timeLoss="15.33" rerouteNo="1" devices="tripinfo_A1_1.0 routing_A1_1.0" vType="tricycle" speedFactor="0.95" vaporized=""/>
    <tripinfo id="B3_1.0" depart="63.85" departLane="-361257727#0_1" departPos="8.10" departPosLat="0.00" departSpeed="8.33" departDelay="0.00" arrival="191.90" arrivalLane="-140483224#1_1" arrivalPos="64.04" arrivalPosLat="0.00" arrivalSpeed="27.78" duration="128.05" routeLength="1407.94" waitingTime="0.00" waitingCount="0" stopTime="0.00" timeLoss="11.14" rerouteNo="1" devices="tripinfo_B3_1.0 routing_B3_1.0" vType="jeep" speedFactor="1.00" vaporized=""/>
    <tripinfo id="C1_1.5" depart="113.70" departLane="440471861#0_1" departPos="8.10" departPosLat="0.00" departSpeed="27.78" departDelay="0.00" arrival="192.75" arrivalLane="-793339796#2_2" arrivalPos="82.50" arrivalPosLat="0.00" arrivalSpeed="24.41" duration="79.05" routeLength="1650.99" waitingTime="0.00" waitingCount="0" stopTime="0.00" timeLoss="18.47" rerouteNo="1" devices="tripinfo_C1_1.5 routing_C1_1.5" vType="jeep" speedFactor="1.00" vaporized=""/>
    <tripinfo id="B2_1.2" depart="65.15" departLane="-361257727#0_1" departPos="8.10" departPosLat="0.00" departSpeed="5.34" departDelay="0.55" arrival="195.35" arrivalLane="-440471861#0_1" arrivalPos="31.52" arrivalPosLat="0.00" arrivalSpeed="27.76" duration="130.20" routeLength="1394.68" waitingTime="0.00" waitingCount="0" stopTime="0.00" timeLoss="13.52" rerouteNo="1" devices="tripinfo_B2_1.2 routing_B2_1.2" vType="jeep" speedFactor="1.00" vaporized=""/>
    <tripinfo id="B2_1.3" depart="75.15" departLane="-361257727#0_1" departPos="5.10" departPosLat="0.00" departSpeed="8.23" departDelay="0.00" arrival="198.70" arrivalLane="-440471861#0_1" arrivalPos="31.52" arrivalPosLat="-0.00" arrivalSpeed="27.46" duration="123.55" routeLength="1397.68" waitingTime="0.00" waitingCount="0" stopTime="0.00" timeLoss="5.13" rerouteNo="1" devices="tripinfo_B2_1.3 routing_B2_1.3" vType="car" speedFactor="0.99" vaporized=""/>
    <tripinfo id="B1_1.0" depart="37.80" departLane="-361257727#0_1" departPos="5.10" departPosLat="0.00" departSpeed="7.39" departDelay="0.00" arrival="202.25" arrivalLane="-793339796#2_2" arrivalPos="82.50" arrivalPosLat="0.00" arrivalSpeed="24.59" duration="164.45" routeLength="1915.44" waitingTime="0.00" waitingCount="0" stopTime="0.00" timeLoss="12.71" rerouteNo="1" devices="tripinfo_B1_1.0 routing_B1_1.0" vType="car" speedFactor="0.89" vaporized=""/>
    <tripinfo id="D1_1.1" depart="37.25" departLane="140483224#1_1" departPos="5.10" departPosLat="0.00" departSpeed="28.29" departDelay="0.00" arrival="204.90" arrivalLane="-793339796#2_2" arrivalPos="82.50" arrivalPosLat="0.00" arrivalSpeed="28.28" duration="167.65" routeLength="1648.38" waitingTime="86.45" waitingCount="1" stopTime="0.00" timeLoss="107.05" rerouteNo="1" devices="tripinfo_D1_1.1 routing_D1_1.1" vType="car" speedFactor="1.02" vaporized=""/>
    <tripinfo id="D3_1.1" depart="90.55" departLane="140483224#1_2" departPos="5.10" departPosLat="0.00" departSpeed="25.66" departDelay="0.75" arrival="208.00" arrivalLane="-440471861#0_2" arrivalPos="31.52" arrivalPosLat="0.00" arrivalSpeed="25.62" duration="117.45" routeLength="1067.97" waitingTime="66.30" waitingCount="1" stopTime="0.00" timeLoss="74.16" rerouteNo="1" devices="tripinfo_D3_1.1 routing_D3_1.1" vType="car" speedFactor="0.92" vaporized=""/>
    <tripinfo id="D1_1.2" depart="46.15" departLane="140483224#1_1" departPos="5.10" departPosLat="0.00" departSpeed="27.03" departDelay="0.00" arrival="208.95" arrivalLane="-793339796#2_2" arrivalPos="82.50" arrivalPosLat="0.00" arrivalSpeed="27.02" duration="162.80" routeLength="1648.38" waitingTime="77.50" waitingCount="1" stopTime="0.00" timeLoss="99.38" rerouteNo="1" devices="tripinfo_D1_1.2 routing_D1_1.2" vType="car" speedFactor="0.97" vaporized=""/>
    <tripinfo id="D3_1.2" depart="100.85" departLane="140483224#1_2" departPos="5.10" departPosLat="0.00" departSpeed="27.97" departDelay="0.00" arrival="209.25" arrivalLane="-440471861#0_2" arrivalPos="31.52" arrivalPosLat="0.00" arrivalSpeed="27.91" duration="108.40" routeLength="1067.97" waitingTime="57.70" waitingCount="1" stopTime="0.00" timeLoss="68.69" rerouteNo="1" devices="tripinfo_D3_1.2 routing_D3_1.2" vType="car" speedFactor="1.01" vaporized=""/>
    <tripinfo id="D3_1.3" depart="103.40" departLane="140483224#1_1" departPos="2.30" departPosLat="0.00" departSpeed="28.96" departDelay="0.00" arrival="210.55" arrivalLane="-440471861#0_2" arrivalPos="31.52" arrivalPosLat="0.00" arrivalSpeed="28.93" duration="107.15" routeLength="1070.77" waitingTime="52.90" waitingCount="1" stopTime="0.00" timeLoss="68.70" rerouteNo="1" devices="tripinfo_D3_1.3 routing_D3_1.3" vType="tricycle" speedFactor="1.04" vaporized=""/>
    <personinfo id="pf_4.6" depart="90.00" type="ped" speedFactor="1.01" duration="122.05" waitingTime="3.80" timeLoss="15.83" traveltime="122.05">
        <walk depart="90.00" departPos="25.00" arrival="149.15" arrivalPos="29.11" duration="59.15" routeLength="72.15" timeLoss="7.49" maxSpeed="1.40" waitingTime="1.65"/>
        <walk depart="149.15" departPos="29.11" arrival="212.05" arrivalPos="29.05" duration="62.90" routeLength="76.20" timeLoss="8.34" maxSpeed="1.40" waitingTime="2.15"/>
    </personinfo>
    <tripinfo id="D1_1.3" depart="58.55" departLane="140483224#1_1" departPos="5.10" departPosLat="0.00" departSpeed="27.81" departDelay="0.00" arrival="212.05" arrivalLane="-793339796#2_2" arrivalPos="82.50" arrivalPosLat="0.00" arrivalSpeed="27.78" duration="153.50" routeLength="1648.38" waitingTime="62.55" waitingCount="1" stopTime="0.00" timeLoss="91.89" rerouteNo="1" devices="tripinfo_D1_1.3 routing_D1_1.3" vType="car" speedFactor="1.00" vaporized=""/>
    <tripinfo id="D3_1.4" depart="106.35" departLane="140483224#1_1" departPos="12.10" departPosLat="0.00" departSpeed="26.27" departDelay="0.00" arrival="217.85" arrivalLane="-440471861#0_2" arrivalPos="31.52" arrivalPosLat="0.00" arrivalSpeed="27.75" duration="111.50" routeLength="1060.97" waitingTime="52.40" waitingCount="4" stopTime="0.00" timeLoss="71.75" rerouteNo="1" devices="tripinfo_D3_1.4 routing_D3_1.4" vType="bus" speedFactor="1.00" vaporized=""/>
    <tripinfo id="D1_1.4" depart="106.95" departLane="140483224#1_1" departPos="5.10" departPosLat="0.00" departSpeed="23.67" departDelay="0.00" arrival="219.20" arrivalLane="-793339796#2_2" arrivalPos="82.50" arrivalPosLat="0.00" arrivalSpeed="27.89" duration="112.25" routeLength="1648.38" waitingTime="17.35" waitingCount="1" stopTime="0.00" timeLoss="50.93" rerouteNo="1" devices="tripinfo_D1_1.4 routing_D1_1.4" vType="car" speedFactor="1.01" vaporized=""/>
    <tripinfo id="D1_1.5" depart="118.00" departLane="140483224#1_1" departPos="5.10" departPosLat="0.00" departSpeed="27.04" departDelay="0.00" arrival="223.75" arrivalLane="-793339796#2_2" arrivalPos="82.50" arrivalPosLat="0.00" arrivalSpeed="27.02" duration="105.75" routeLength="1648.38" waitingTime="8.15" waitingCount="1" stopTime="0.00" timeLoss="42.34" rerouteNo="1" devices="tripinfo_D1_1.5 routing_D1_1.5" vType="car" speedFactor="0.97" vaporized=""/>
    <personinfo id="pf_4.7" depart="105.00" type="ped" speedFactor="1.01" duration="119.55" waitingTime="2.00" timeLoss="13.52" traveltime="119.55">
        <walk depart="105.00" departPos="25.00" arrival="162.10" arrivalPos="29.11" duration="57.10" routeLength="72.15" timeLoss="5.53" maxSpeed="1.40" waitingTime="0.00"/>
        <walk depart="162.10" departPos="29.11" arrival="224.55" arrivalPos="29.05" duration="62.45" routeLength="76.20" timeLoss="7.99" maxSpeed="1.40" waitingTime="2.00"/>
    </personinfo>
    <tripinfo id="A2_1.4" depart="66.90" departLane="-793339796#2_1" departPos="5.10" departPosLat="0.00" departSpeed="27.21" departDelay="4.00" arrival="227.15" arrivalLane="-440471861#0_1" arrivalPos="31.52" arrivalPosLat="0.00" arrivalSpeed="27.18" duration="160.25" routeLength="1081.27" waitingTime="110.80" waitingCount="1" stopTime="0.00" timeLoss="120.48" rerouteNo="1" devices="tripinfo_A2_1.4 routing_A2_1.4" vType="car" speedFactor="0.98" vaporized=""/>
    <personinfo id="pf_4.3" depart="45.00" type="ped" speedFactor="0.69" duration="183.25" waitingTime="11.30" timeLoss="28.54" traveltime="183.25">
        <walk depart="45.00" departPos="25.00" arrival="128.45" arrivalPos="29.11" duration="83.45" routeLength="72.15" timeLoss="8.21" maxSpeed="0.96" waitingTime="0.00"/>
        <walk depart="128.45" departPos="29.11" arrival="228.25" arrivalPos="29.05" duration="99.80" routeLength="76.20" timeLoss="20.33" maxSpeed="0.96" waitingTime="11.30"/>
    </personinfo>
    <tripinfo id="A1_1.1" depart="137.45" departLane="-793339796#2_1" departPos="8.10" departPosLat="0.00" departSpeed="23.32" departDelay="11.80" arrival="232.15" arrivalLane="-145894807#0_1" arrivalPos="260.95" arrivalPosLat="0.00" arrivalSpeed="8.31" duration="94.70" routeLength="1053.72" waitingTime="0.00" waitingCount="0" stopTime="0.00" timeLoss="5.25" rerouteNo="1" devices="tripinfo_A1_1.1 routing_A1_1.1" vType="jeep" speedFactor="1.00" vaporized=""/>
    <tripinfo id="D1_1.6" depart="157.60" departLane="140483224#1_1" departPos="5.10" departPosLat="0.00" departSpeed="29.18" departDelay="0.00" arrival="232.30" arrivalLane="-793339796#2_2" arrivalPos="82.50" arrivalPosLat="0.00" arrivalSpeed="29.14" duration="74.70" routeLength="1648.38" waitingTime="0.00" waitingCount="0" stopTime="0.00" timeLoss="15.97" rerouteNo="1" devices="tripinfo_D1_1.6 routing_D1_1.6" vType="car" speedFactor="1.05" vaporized=""/>
    <personinfo id="pf_4.8" depart="120.00" type="ped" speedFactor="1.09" duration="113.10" waitingTime="4.75" timeLoss="15.41" traveltime="113.10">
        <walk depart="120.00" departPos="25.00" arrival="174.80" arrivalPos="29.11" duration="54.80" routeLength="72.15" timeLoss="7.29" maxSpeed="1.52" waitingTime="2.15"/>
        <walk depart="174.80" departPos="29.11" arrival="233.10" arrivalPos="29.05" duration="58.30" routeLength="76.20" timeLoss="8.12" maxSpeed="1.52" waitingTime="2.60"/>
    </personinfo>
    <personinfo id="pf_2.4" depart="60.00" type="ped" speedFactor="1.13" duration="174.45" waitingTime="152.65" timeLoss="154.91" traveltime="174.45">
        <walk depart="60.00" departPos="15.09" arrival="234.45" arrivalPos="3.44" duration="174.45" routeLength="30.72" timeLoss="154.91" maxSpeed="1.57" waitingTime="152.65"/>
    </personinfo>
    <personinfo id="pf_2.6" depart="90.00" type="ped" speedFactor="1.18" duration="144.80" waitingTime="123.85" timeLoss="126.03" traveltime="144.80">
        <walk depart="90.00" departPos="15.09" arrival="234.80" arrivalPos="3.44" duration="144.80" routeLength="30.72" timeLoss="126.03" maxSpeed="1.64" waitingTime="123.85"/>
    </personinfo>
    <personinfo id="pf_2.7" depart="105.00" type="ped" speedFactor="1.15" duration="130.50" waitingTime="108.90" timeLoss="111.34" traveltime="130.50">
        <walk depart="105.00" departPos="15.09" arrival="235.50" arrivalPos="3.44" duration="130.50" routeLength="30.72" timeLoss="111.34" maxSpeed="1.60" waitingTime="108.90"/>
    </personinfo>
    <tripinfo id="A2_1.5" depart="67.25" departLane="-793339796#2_2" departPos="7.20" departPosLat="0.00" departSpeed="24.59" departDelay="2.30" arrival="235.95" arrivalLane="-440471861#0_1" arrivalPos="31.52" arrivalPosLat="-0.00" arrivalSpeed="24.89" duration="168.70" routeLength="1079.17" waitingTime="105.10" waitingCount="1" stopTime="0.00" timeLoss="125.35" rerouteNo="1" devices="tripinfo_A2_1.5 routing_A2_1.5" vType="truck" speedFactor="0.90" vaporized=""/>
    <personinfo id="pf_2.3" depart="45.00" type="ped" speedFactor="0.95" duration="192.10" waitingTime="166.30" timeLoss="168.79" traveltime="192.10">
        <walk depart="45.00" departPos="15.09" arrival="237.10" arrivalPos="3.44" duration="192.10" routeLength="30.72" timeLoss="168.79" maxSpeed="1.32" waitingTime="166.30"/>
    </personinfo>
    <personinfo id="pf_2.9" depart="135.00" type="ped" speedFactor="1.17" duration="102.25" waitingTime="79.30" timeLoss="83.37" traveltime="102.25">
        <walk depart="135.00" departPos="15.09" arrival="237.25" arrivalPos="3.44" duration="102.25" routeLength="30.72" timeLoss="83.37" maxSpeed="1.63" waitingTime="79.30"/>
    </personinfo>
    <personinfo id="pf_2.5" depart="75.00" type="ped" speedFactor="0.93" duration="162.45" waitingTime="136.20" timeLoss="138.70" traveltime="162.45">
        <walk depart="75.00" departPos="15.09" arrival="237.45" arrivalPos="3.44" duration="162.45" routeLength="30.72" timeLoss="138.70" maxSpeed="1.29" waitingTime="136.20"/>
    </personinfo>
    <tripinfo id="D2_1.0" depart="33.65" departLane="140483224#1_1" departPos="5.10" departPosLat="0.00" departSpeed="26.65" departDelay="0.00" arrival="237.70" arrivalLane="-145894807#0_1" arrivalPos="260.95" arrivalPosLat="0.00" arrivalSpeed="7.99" duration="204.05" routeLength="1092.76" waitingTime="105.55" waitingCount="2" stopTime="0.00" timeLoss="115.13" rerouteNo="1" devices="tripinfo_D2_1.0 routing_D2_1.0" vType="car" speedFactor="0.96" vaporized=""/>
    <personinfo id="pf_2.13" depart="195.00" type="ped" speedFactor="1.18" duration="42.75" waitingTime="20.40" timeLoss="24.00" traveltime="42.75">
        <walk depart="195.00" departPos="15.09" arrival="237.75" arrivalPos="3.44" duration="42.75" routeLength="30.72" timeLoss="24.00" maxSpeed="1.64" waitingTime="20.40"/>
    </personinfo>
    <personinfo id="pf_2.2" depart="30.00" type="ped" speedFactor="0.92" duration="207.85" waitingTime="181.10" timeLoss="183.73" traveltime="207.85">
        <walk depart="30.00" departPos="15.09" arrival="237.85" arrivalPos="3.44" duration="207.85" routeLength="30.72" timeLoss="183.73" maxSpeed="1.27" waitingTime="181.10"/>
    </personinfo>
    <personinfo id="pf_2.12" depart="180.00" type="ped" speedFactor="0.97" duration="58.00" waitingTime="32.80" timeLoss="35.27" traveltime="58.00">
        <walk depart="180.00" departPos="15.09" arrival="238.00" arrivalPos="3.44" duration="58.00" routeLength="30.72" timeLoss="35.27" maxSpeed="1.35" waitingTime="32.80"/>
    </personinfo>
    <personinfo id="pf_2.11" depart="165.00" type="ped" speedFactor="1.02" duration="73.30" waitingTime="49.05" timeLoss="51.61" traveltime="73.30">