<?xml version="1.0" encoding="UTF-8"?>

<!-- generated on 2026-02-25 21:17:41 by Eclipse SUMO sumo Version 1.24.0
<sumoConfiguration xmlns:xsi="http://www.w3.org/2001/XMLSchema-instance" xsi:noNamespaceSchemaLocation="http://sumo.dlr.de/xsd/sumoConfiguration.xsd">

    <input>
        <net-file value="Banlic-Mamatid_traci/network/banlic-mamatid_signalized.net.xml"/>
        <route-files value="Banlic-Mamatid_traci/demand/flows_training.rou.xml"/>
        <additional-files value="Banlic-Mamatid_traci/additionals/banlic-mamatid.poly.xml,Banlic-Mamatid_traci/ additionals/banlic-mamatid.add.xml"/>
    </input>

    <output>
        <tripinfo-output value="Banlic-Mamatid_traci/output_A2C/SD_A2C_trips.xml"/>
        <statistic-output value="Banlic-Mamatid_traci/output_A2C/SD_A2C_stats.xml"/>
    </output>

    <time>
        <begin value="0"/>
        <end value="10800"/>
        <step-length value="0.1"/>
    </time>

    <processing>
        <lateral-resolution value="0.1"/>
        <collision.action value="none"/>
        <collision.check-junctions value="false"/>
        <collision.mingap-factor value="0"/>
    </processing>

    <report>
        <no-warnings value="true"/>
    </report>

    <traci_server>
        <remote-port value="52762"/>
    </traci_server>

    <gui_only>
        <delay value="0"/>
    </gui_only>

</sumoConfiguration>
-->

<tripinfos xmlns:xsi="http://www.w3.org/2001/XMLSchema-instance" xsi:noNamespaceSchemaLocation="http://sumo.dlr.de/xsd/tripinfo_file.xsd">
    <tripinfo id="slow_am_ramp_NeighbortoCalamba.0" depart="15.30" departLane="-32425190#1_1" departPos="2.30" departPosLat="0.00" departSpeed="14.03" departDelay="0.00" arrival="66.60" arrivalLane="-32425220#0_2" arrivalPos="290.87" arrivalPosLat="0.00" arrivalSpeed="28.00" duration="51.30" routeLength="1059.30" waitingTime="0.00" waitingCount="0" stopTime="0.00" timeLoss="5.77" rerouteNo="1" devices="tripinfo_slow_am_ramp_NeighbortoCalamba.0 routing_slow_am_ramp_NeighbortoCalamba.0" vType="tricycle" speedFactor="1.01" vaporized=""/>
    <tripinfo id="slow_am_ramp_CalambatoNeighbor.0" depart="22.80" departLane="32425220#0_2" departPos="8.10" departPosLat="0.00" departSpeed="27.78" departDelay="0.00" arrival="73.40" arrivalLane="32425190#1_1" arrivalPos="142.43" arrivalPosLat="0.00" arrivalSpeed="13.84" duration="50.60" routeLength="1067.05" waitingTime="0.00" waitingCount="0" stopTime="0.00" timeLoss="3.95" rerouteNo="1" devices="tripinfo_slow_am_ramp_CalambatoNeighbor.0 routing_slow_am_ramp_CalambatoNeighbor.0" vType="jeep" speedFactor="1.00" vaporized=""/>
    <tripinfo id="slow_am_ramp_NeighbortoStaRosa.0" depart="1.20" departLane="-32425190#1_1" departPos="5.10" departPosLat="0.00" departSpeed="13.68" departDelay="0.00" arrival="103.80" arrivalLane="549232953#10_1" arrivalPos="967.06" arrivalPosLat="0.00" arrivalSpeed="27.27" duration="102.60" routeLength="2483.86" waitingTime="0.00" waitingCount="0" stopTime="0.00" timeLoss="3.61" rerouteNo="1" devices="tripinfo_slow_am_ramp_NeighbortoStaRosa.0 routing_slow_am_ramp_NeighbortoStaRosa.0" vType="car" speedFactor="0.99" vaporized=""/>
    <tripinfo id="slow_am_ramp_CalambatoStaRosa.0" depart="6.60" departLane="32425220#0_1" departPos="8.10" departPosLat="0.00" departSpeed="27.78" departDelay="0.00" arrival="141.30" arrivalLane="549232953#10_1" arrivalPos="967.06" arrivalPosLat="0.00" arrivalSpeed="27.76" duration="134.70" routeLength="3152.57" waitingTime="2.10" waitingCount="1" stopTime="0.00" timeLoss="21.15" rerouteNo="1" devices="tripinfo_slow_am_ramp_CalambatoStaRosa.0 routing_slow_am_ramp_CalambatoStaRosa.0" vType="jeep" speedFactor="1.00" vaporized=""/>
    <tripinfo id="slow_am_ramp_CalambatoStaRosa.1" depart="17.30" departLane="32425220#0_1" departPos="12.10" departPosLat="0.00" departSpeed="27.78" departDelay="0.00" arrival="142.70" arrivalLane="549232953#10_1" arrivalPos="967.06" arrivalPosLat="-0.00" arrivalSpeed="27.77" duration="125.40" routeLength="3148.57" waitingTime="0.00" waitingCount="0" stopTime="0.00" timeLoss="11.96" rerouteNo="1" devices="tripinfo_slow_am_ramp_CalambatoStaRosa.1 routing_slow_am_ramp_CalambatoStaRosa.1" vType="bus" speedFactor="1.00" vaporized=""/>
    <tripinfo id="slow_am_ramp_CalambatoStaRosa.3" depart="30.30" departLane="32425220#0_2" departPos="5.10" departPosLat="0.00" departSpeed="28.29" departDelay="0.00" arrival="144.20" arrivalLane="549232953#10_1" arrivalPos="967.06" arrivalPosLat="-0.00" arrivalSpeed="28.17" duration="113.90" routeLength="3155.57" waitingTime="0.00" waitingCount="0" stopTime="0.00" timeLoss="2.27" rerouteNo="1" devices="tripinfo_slow_am_ramp_CalambatoStaRosa.3 routing_slow_am_ramp_CalambatoStaRosa.3" vType="car" speedFactor="1.02" vaporized=""/>
    <tripinfo id="slow_am_ramp_CalambatoStaRosa.2" depart="26.60" departLane="32425220#0_1" departPos="5.10" departPosLat="0.00" departSpeed="26.65" departDelay="0.00" arrival="146.50" arrivalLane="549232953#10_1" arrivalPos="967.06" arrivalPosLat="-0.00" arrivalSpeed="26.59" duration="119.90" routeLength="3155.57" waitingTime="0.00" waitingCount="0" stopTime="0.00" timeLoss="1.45" rerouteNo="1" devices="tripinfo_slow_am_ramp_CalambatoStaRosa.2 routing_slow_am_ramp_CalambatoStaRosa.2" vType="car" speedFactor="0.96" vaporized=""/>
    <tripinfo id="slow_am_ramp_StaRosatoCalamba.0" depart="3.00" departLane="-549232953#10_1" departPos="2.30" departPosLat="0.00" departSpeed="28.93" departDelay="0.00" arrival="148.80" arrivalLane="-32425220#0_1" arrivalPos="290.87" arrivalPosLat="0.00" arrivalSpeed="28.64" duration="145.80" routeLength="3155.07" waitingTime="31.80" waitingCount="1" stopTime="0.00" timeLoss="36.73" rerouteNo="1" devices="tripinfo_slow_am_ramp_StaRosatoCalamba.0 routing_slow_am_ramp_StaRosatoCalamba.0" vType="motorcycle" speedFactor="1.04" vaporized=""/>
    <tripinfo id="slow_am_ramp_StaRosatoCalamba.4" depart="41.40" departLane="-549232953#10_2" departPos="5.10" departPosLat="0.00" departSpeed="31.78" departDelay="0.00" arrival="153.80" arrivalLane="-32425220#0_2" arrivalPos="290.87" arrivalPosLat="0.00" arrivalSpeed="31.76" duration="112.40" routeLength="3152.27" waitingTime="0.00" waitingCount="0" stopTime="0.00" timeLoss="13.21" rerouteNo="1" devices="tripinfo_slow_am_ramp_StaRosatoCalamba.4 routing_slow_am_ramp_StaRosatoCalamba.4" vType="car" speedFactor="1.14" vaporized=""/>
    <tripinfo id="slow_am_ramp_StaRosatoCalamba.1" depart="6.90" departLane="-549232953#10_2" departPos="2.30" departPosLat="0.00" departSpeed="26.42" departDelay="0.00" arrival="157.30" arrivalLane="-32425220#0_1" arrivalPos="290.87" arrivalPosLat="-0.00" arrivalSpeed="26.33" duration="150.40" routeLength="3155.07" waitingTime="20.80" waitingCount="1" stopTime="0.00" timeLoss="31.00" rerouteNo="1" devices="tripinfo_slow_am_ramp_StaRosatoCalamba.1 routing_slow_am_ramp_StaRosatoCalamba.1" vType="tricycle" speedFactor="0.95" vaporized=""/>
    <tripinfo id="slow_am_ramp_StaRosatoCalamba.2" depart="8.90" departLane="-549232953#10_1" departPos="7.20" departPosLat="0.00" departSpeed="26.64" departDelay="0.00" arrival="162.20" arrivalLane="-32425220#0_1" arrivalPos="290.87" arrivalPosLat="0.00" arrivalSpeed="26.62" duration="153.30" routeLength="3150.17" waitingTime="13.90" waitingCount="1" stopTime="0.00" timeLoss="35.07" rerouteNo="1" devices="tripinfo_slow_am_ramp_StaRosatoCalamba.2 routing_slow_am_ramp_StaRosatoCalamba.2" vType="truck" speedFactor="0.96" vaporized=""/>
    <tripinfo id="slow_am_ramp_StaRosatoCalamba.6" depart="48.10" departLane="-549232953#10_1" departPos="5.10" departPosLat="0.00" departSpeed="29.67" departDelay="0.00" arrival="163.20" arrivalLane="-32425220#0_2" arrivalPos="290.87" arrivalPosLat="0.00" arrivalSpeed="29.57" duration="115.10" routeLength="3152.27" waitingTime="0.00" waitingCount="0" stopTime="0.00" timeLoss="8.82" rerouteNo="1" devices="tripinfo_slow_am_ramp_StaRosatoCalamba.6 routing_slow_am_ramp_StaRosatoCalamba.6" vType="car" speedFactor="1.07" vaporized=""/>
    <tripinfo id="slow_am_ramp_CalambatoStaRosa.4" depart="35.30" departLane="32425220#0_1" departPos="5.10" departPosLat="0.00" departSpeed="24.66" departDelay="0.00" arrival="163.70" arrivalLane="549232953#10_1" arrivalPos="967.06" arrivalPosLat="0.00" arrivalSpeed="24.64" duration="128.40" routeLength="3155.57" waitingTime="0.00" waitingCount="0" stopTime="0.00" timeLoss="0.33" rerouteNo="1" devices="tripinfo_slow_am_ramp_CalambatoStaRosa.4 routing_slow_am_ramp_CalambatoStaRosa.4" vType="car" speedFactor="0.89" vaporized=""/>
    <tripinfo id="slow_am_ramp_StaRosatoCalamba.3" depart="16.40" departLane="-549232953#10_2" departPos="5.10" departPosLat="0.00" departSpeed="26.25" departDelay="0.00" arrival="163.80" arrivalLane="-32425220#0_1" arrivalPos="290.87" arrivalPosLat="-0.00" arrivalSpeed="26.16" duration="147.40" routeLength="3152.27" waitingTime="6.10" waitingCount="1" stopTime="0.00" timeLoss="27.27" rerouteNo="1" devices="tripinfo_slow_am_ramp_StaRosatoCalamba.3 routing_slow_am_ramp_StaRosatoCalamba.3" vType="car" speedFactor="0.94" vaporized=""/>
    <tripinfo id="slow_am_ramp_CalambatoBanlic.0" depart="40.30" departLane="32425220#0_2" departPos="2.30" departPosLat="0.00" departSpeed="29.34" departDelay="0.00" arrival="173.00" arrivalLane="-1346113028#0_1" arrivalPos="507.75" arrivalPosLat="-0.00" arrivalSpeed="8.73" duration="132.70" routeLength="1740.27" waitingTime="0.00" waitingCount="0" stopTime="0.00" timeLoss="4.37" rerouteNo="1" devices="tripinfo_slow_am_ramp_CalambatoBanlic.0 routing_slow_am_ramp_CalambatoBanlic.0" vType="motorcycle" speedFactor="1.06" vaporized=""/>
    <tripinfo id="slow_am_ramp_StaRosatoCalamba.8" depart="53.80" departLane="-549232953#10_1" departPos="7.20" departPosLat="0.00" departSpeed="28.29" departDelay="0.00" arrival="175.70" arrivalLane="-32425220#0_2" arrivalPos="290.87" arrivalPosLat="0.00" arrivalSpeed="28.28" duration="121.90" routeLength="3150.17" waitingTime="0.00" waitingCount="0" stopTime="0.00" timeLoss="10.53" rerouteNo="1" devices="tripinfo_slow_am_ramp_StaRosatoCalamba.8 routing_slow_am_ramp_StaRosatoCalamba.8" vType="truck" speedFactor="1.02" vaporized=""/>
    <tripinfo id="slow_am_ramp_StaRosatoCalamba.9" depart="54.10" departLane="-549232953#10_2" departPos="8.10" departPosLat="0.00" departSpeed="27.78" departDelay="0.00" arrival="176.30" arrivalLane="-32425220#0_1" arrivalPos="290.87" arrivalPosLat="-0.00" arrivalSpeed="27.76" duration="122.20" routeLength="3149.27" waitingTime="0.00" waitingCount="0" stopTime="0.00" timeLoss="8.82" rerouteNo="1" devices="tripinfo_slow_am_ramp_StaRosatoCalamba.9 routing_slow_am_ramp_StaRosatoCalamba.9" vType="jeep" speedFactor="1.00" vaporized=""/>
    <tripinfo id="slow_am_ramp_StaRosatoCalamba.7" depart="48.40" departLane="-549232953#10_2" departPos="5.10" departPosLat="0.00" departSpeed="22.74" departDelay="0.00" arrival="177.70" arrivalLane="-32425220#0_1" arrivalPos="290.87" arrivalPosLat="-0.00" arrivalSpeed="27.78" duration="129.30" routeLength="3152.27" waitingTime="2.10" waitingCount="1" stopTime="0.00" timeLoss="15.94" rerouteNo="1" devices="tripinfo_slow_am_ramp_StaRosatoCalamba.7 routing_slow_am_ramp_StaRosatoCalamba.7" vType="car" speedFactor="1.00" vaporized=""/>
    <personinfo id="slow_am_ramp_SavemoretoJeepPila.1" depart="72.00" type="ped" speedFactor="1.17" duration="113.60" waitingTime="16.90" timeLoss="26.79" traveltime="113.60">
        <walk depart="72.00" departPos="0.00" arrival="185.60" arrivalPos="25.71" duration="113.60" routeLength="140.94" timeLoss="26.79" maxSpeed="1.62" waitingTime="16.90"/>
    </personinfo>
    <tripinfo id="slow_am_ramp_CalambatoBanlic.1" depart="54.60" departLane="32425220#0_1" departPos="8.10" departPosLat="0.00" departSpeed="27.78" departDelay="0.00" arrival="192.70" arrivalLane="-1346113028#0_1" arrivalPos="507.75" arrivalPosLat="0.00" arrivalSpeed="8.30" duration="138.10" routeLength="1734.47" waitingTime="0.00" waitingCount="0" stopTime="0.00" timeLoss="2.91" rerouteNo="1" devices="tripinfo_slow_am_ramp_CalambatoBanlic.1 routing_slow_am_ramp_CalambatoBanlic.1" vType="jeep" speedFactor="1.00" vaporized=""/>
    <personinfo id="slow_am_ramp_InasaltoPalengke.0" depart="0.00" type="ped" speedFactor="1.07" duration="193.50" waitingTime="157.50" timeLoss="161.01" traveltime="193.50">
        <walk depart="0.00" departPos="0.00" arrival="193.50" arrivalPos="34.28" duration="193.50" routeLength="48.06" timeLoss="161.01" maxSpeed="1.48" waitingTime="157.50"/>
    </personinfo>
    <personinfo id="slow_am_ramp_SavemoretoJeepPila.0" depart="0.00" type="ped" speedFactor="0.85" duration="194.50" waitingTime="62.60" timeLoss="75.80" traveltime="194.50">
        <walk depart="0.00" departPos="0.00" arrival="194.50" arrivalPos="25.71" duration="194.50" routeLength="140.94" timeLoss="75.80" maxSpeed="1.19" waitingTime="62.60"/>
    </personinfo>
    <personinfo id="slow_am_ramp_InasaltoPalengke.2" depart="144.00" type="ped" speedFactor="0.93" duration="53.30" waitingTime="11.90" timeLoss="15.97" traveltime="53.30">
        <walk depart="144.00" departPos="0.00" arrival="197.30" arrivalPos="34.28" duration="53.30" routeLength="48.06" timeLoss="15.97" maxSpeed="1.29" waitingTime="11.90"/>
    </personinfo>
    <personinfo id="slow_am_ramp_InasaltoPalengke.1" depart="72.00" type="ped" speedFactor="0.92" duration="126.80" waitingTime="84.90" timeLoss="89.09" traveltime="126.80">
        <walk depart="72.00" departPos="0.00" arrival="198.80" arrivalPos="34.28" duration="126.80" routeLength="48.06" timeLoss="89.09" maxSpeed="1.27" waitingTime="84.90"/>
    </personinfo>
    <personinfo id="slow_am_ramp_InasaltoSavemore.0" depart="0.00" type="ped" speedFactor="1.07" duration="204.90" waitingTime="157.90" timeLoss="162.70" traveltime="204.90">
        <walk depart="0.00" departPos="0.00" arrival="204.90" arrivalPos="44.65" duration="204.90" routeLength="62.53" timeLoss="162.70" maxSpeed="1.48" waitingTime="157.90"/>
    </personinfo>
    <personinfo id="slow_am_ramp_SavemoretoInasal.0" depart="0.00" type="ped" speedFactor="1.06" duration="205.30" waitingTime="90.80" timeLoss="163.03" traveltime="205.30">
        <walk depart="0.00" departPos="0.00" arrival="205.30" arrivalPos="44.65" duration="205.30" routeLength="62.53" timeLoss="163.03" maxSpeed="1.48" waitingTime="90.80"/>
    </personinfo>
    <personinfo id="slow_am_ramp_SavemoretoPalengke.0" depart="0.00" type="ped" speedFactor="1.06" duration="205.40" waitingTime="90.80" timeLoss="102.39" traveltime="205.40">
        <walk depart="0.00" departPos="0.00" arrival="205.40" arrivalPos="34.28" duration="205.40" routeLength="151.65" timeLoss="102.39" maxSpeed="1.47" waitingTime="90.80"/>
    </personinfo>
    <personinfo id="slow_am_ramp_PalengketoInasal.2" depart="144.00" type="ped" speedFactor="0.99" duration="62.20" waitingTime="14.70" timeLoss="19.60" traveltime="62.20">
        <walk depart="144.00" departPos="0.00" arrival="206.20" arrivalPos="44.65" duration="62.20" routeLength="58.43" timeLoss="19.60" maxSpeed="1.37" waitingTime="14.70"/>
    </personinfo>
    <personinfo id="slow_am_ramp_PalengketoInasal.0" depart="0.00" type="ped" speedFactor="0.93" duration="209.20" waitingTime="158.90" timeLoss="164.06" traveltime="209.20">
        <walk depart="0.00" departPos="0.00" arrival="209.20" arrivalPos="44.65" duration="209.20" routeLength="58.43" timeLoss="164.06" maxSpeed="1.29" waitingTime="158.90"/>
    </personinfo>
    <personinfo id="slow_am_ramp_InasaltoSavemore.2" depart="144.00" type="ped" speedFactor="0.98" duration="66.40" waitingTime="14.60" timeLoss="20.23" traveltime="66.40">
        <walk depart="144.00" departPos="0.00" arrival="210.40" arrivalPos="44.65" duration="66.40" routeLength="62.53" timeLoss="20.23" maxSpeed="1.35" waitingTime="14.60"/>
    </personinfo>
    <personinfo id="slow_am_ramp_SavemoretoInasal.1" depart="72.00" type="ped" speedFactor="0.96" duration="138.50" waitingTime="11.60" timeLoss="91.44" traveltime="138.50">
        <walk depart="72.00" departPos="0.00" arrival="210.50" arrivalPos="44.65" duration="138.50" routeLength="62.53" timeLoss="91.44" maxSpeed="1.33" waitingTime="11.60"/>
    </personinfo>
    <personinfo id="slow_am_ramp_SavemoretoPalengke.1" depart="72.00" type="ped" speedFactor="0.94" duration="138.90" waitingTime="9.20" timeLoss="22.53" traveltime="138.90">
        <walk depart="72.00" departPos="0.00" arrival="210.90" arrivalPos="34.28" duration="138.90" routeLength="151.65" timeLoss="22.53" maxSpeed="1.30" waitingTime="9.20"/>
    </personinfo>
    <tripinfo id="slow_am_ramp_StaRosatoBanlic.0" depart="18.00" departLane="-549232953#10_1" departPos="2.30" departPosLat="0.00" departSpeed="31.62" departDelay="0.00" arrival="211.70" arrivalLane="-1346113028#0_1" arrivalPos="507.75" arrivalPosLat="0.00" arrivalSpeed="9.39" duration="193.70" routeLength="3138.61" waitingTime="15.90" waitingCount="1" stopTime="0.00" timeLoss="30.22" rerouteNo="1" devices="tripinfo_slow_am_ramp_StaRosatoBanlic.0 routing_slow_am_ramp_StaRosatoBanlic.0" vType="tricycle" speedFactor="1.14" vaporized=""/>
    <personinfo id="slow_am_ramp_JeepPilatoSavemore.0" depart="0.00" type="ped" speedFactor="1.07" duration="212.20" waitingTime="157.20" timeLoss="164.71" traveltime="212.20">
        <walk depart="0.00" departPos="0.00" arrival="212.20" arrivalPos="44.65" duration="212.20" routeLength="70.59" timeLoss="164.71" maxSpeed="1.49" waitingTime="157.20"/>
    </personinfo>
    <personinfo id="slow_am_ramp_InasaltoJeepPila.2" depart="144.00" type="ped" speedFactor="1.02" duration="69.20" waitingTime="16.30" timeLoss="21.97" traveltime="69.20">
        <walk depart="144.00" departPos="0.00" arrival="213.20" arrivalPos="25.71" duration="69.20" routeLength="67.08" timeLoss="21.97" maxSpeed="1.42" waitingTime="16.30"/>
    </personinfo>
    <personinfo id="slow_am_ramp_InasaltoJeepPila.0" depart="0.00" type="ped" speedFactor="0.97" duration="213.90" waitingTime="158.60" timeLoss="163.97" traveltime="213.90">
        <walk depart="0.00" departPos="0.00" arrival="213.90" arrivalPos="25.71" duration="213.90" routeLength="67.08" timeLoss="163.97" maxSpeed="1.34" waitingTime="158.60"/>
    </personinfo>
    <personinfo id="slow_am_ramp_InasaltoSavemore.1" depart="72.00" type="ped" speedFactor="0.89" duration="142.60" waitingTime="86.10" timeLoss="91.97" traveltime="142.60">
        <walk depart="72.00" departPos="0.00" arrival="214.60" arrivalPos="44.65" duration="142.60" routeLength="62.53" timeLoss="91.97" maxSpeed="1.24" waitingTime="86.10"/>
    </personinfo>
    <personinfo id="slow_am_ramp_PalengketoInasal.1" depart="72.00" type="ped" speedFactor="0.88" duration="143.10" waitingTime="89.60" timeLoss="95.18" traveltime="143.10">
        <walk depart="72.00" departPos="0.00" arrival="215.10" arrivalPos="44.65" duration="143.10" routeLength="58.43" timeLoss="95.18" maxSpeed="1.22" waitingTime="89.60"/>
    </personinfo>
    <personinfo id="slow_am_ramp_JeepPilatoSavemore.1" depart="72.00" type="ped" speedFactor="0.94" duration="145.00" waitingTime="84.70" timeLoss="90.77" traveltime="145.00">
        <walk depart="72.00" departPos="0.00" arrival="217.00" arrivalPos="44.65" duration="145.00" routeLength="70.59" timeLoss="90.77" maxSpeed="1.30" waitingTime="84.70"/>
    </personinfo>
    <personinfo id="slow_am_ramp_PalengketoSavemore.2" depart="144.00" type="ped" speedFactor="1.07" duration="73.40" waitingTime="17.30" timeLoss="24.52" traveltime="73.40">
        <walk depart="144.00" departPos="0.00" arrival="217.40" arrivalPos="44.65" duration="73.40" routeLength="72.73" timeLoss="24.52" maxSpeed="1.49" waitingTime="17.30"/>
    </personinfo>
    <personinfo id="slow_am_ramp_JeepPilatoSavemore.2" depart="144.00" type="ped" speedFactor="0.98" duration="73.40" waitingTime="14.20" timeLoss="21.58" traveltime="73.40">
        <walk depart="144.00" departPos="0.00" arrival="217.40" arrivalPos="44.65" duration="73.40" routeLength="70.59" timeLoss="21.58" maxSpeed="1.36" waitingTime="14.20"/>
    </personinfo>
    <personinfo id="slow_am_ramp_PalengketoSavemore.1" depart="72.00" type="ped" speedFactor="1.00" duration="145.80" waitingTime="86.40" timeLoss="93.67" traveltime="145.80">
        <walk depart="72.00" departPos="0.00" arrival="217.80" arrivalPos="44.65" duration="145.80" routeLength="72.73" timeLoss="93.67" maxSpeed="1.40" waitingTime="86.40"/>
    </personinfo>
    <personinfo id="slow_am_ramp_PalengketoSavemore.0" depart="0.00" type="ped" speedFactor="0.96" duration="218.30" waitingTime="158.00" timeLoss="163.92" traveltime="218.30">
        <walk depart="0.00" departPos="0.00" arrival="218.30" arrivalPos="44.65" duration="218.30" routeLength="72.73" timeLoss="163.92" maxSpeed="1.34" waitingTime="158.00"/>
    </personinfo>
    <personinfo id="slow_am_ramp_JeepPilatoInasal.0" depart="0.00" type="ped" speedFactor="0.98" duration="228.20" waitingTime="157.50" timeLoss="164.82" traveltime="228.20">
        <walk depart="0.00" departPos="0.00" arrival="228.20" arrivalPos="44.65" duration="228.20" routeLength="86.02" timeLoss="164.82" maxSpeed="1.36" waitingTime="157.50"/>
    </personinfo>
    <personinfo id="slow_am_ramp_JeepPilatoInasal.2" depart="144.00" type="ped" speedFactor="1.02" duration="84.60" waitingTime="15.60" timeLoss="23.78" traveltime="84.60">
        <walk depart="144.00" departPos="0.00" arrival="228.60" arrivalPos="44.65" duration="84.60" routeLength="86.02" timeLoss="23.78" maxSpeed="1.41" waitingTime="15.60"/>
    </personinfo>
    <personinfo id="slow_am_ramp_JeepPilatoInasal.1" depart="72.00" type="ped" speedFactor="1.03" duration="156.90" waitingTime="89.60" timeLoss="96.91" traveltime="156.90">
        <walk depart="72.00" departPos="0.00" arrival="228.90" arrivalPos="44.65" duration="156.90" routeLength="86.02" timeLoss="96.91" maxSpeed="1.43" waitingTime="89.60"/>
    </personinfo>
    <tripinfo id="slow_am_ramp_StaRosatoBanlic.1" depart="42.70" departLane="-549232953#10_1" departPos="5.10" departPosLat="0.00" departSpeed="27.03" departDelay="0.00" arrival="236.50" arrivalLane="-1346113028#0_1" arrivalPos="507.75" arrivalPosLat="0.00" arrivalSpeed="8.09" duration="193.80" routeLength="3135.81" waitingTime="0.00" waitingCount="0" stopTime="0.00" timeLoss="2.62" rerouteNo="1" devices="tripinfo_slow_am_ramp_StaRosatoBanlic.1 routing_slow_am_ramp_StaRosatoBanlic.1" vType="car" speedFactor="0.97" vaporized=""/>
    <tripinfo id="slow_am_ramp_StaRosatoNeighbor.0" depart="127.10" departLane="-549232953#10_1" departPos="5.10" departPosLat="0.00" departSpeed="29.43" departDelay="0.00" arrival="237.40" arrivalLane="32425190#1_1" arrivalPos="142.43" arrivalPosLat="0.00" arrivalSpeed="14.70" duration="110.30" routeLength="2475.52" waitingTime="6.20" waitingCount="1" stopTime="0.00" timeLoss="18.71" rerouteNo="1" devices="tripinfo_slow_am_ramp_StaRosatoNeighbor.0 routing_slow_am_ramp_StaRosatoNeighbor.0" vType="car" speedFactor="1.06" vaporized=""/>
    <tripinfo id="slow_am_ramp_CalambatoNeighbor.1" depart="87.10" departLane="32425220#0_2" departPos="8.10" departPosLat="0.00" departSpeed="27.78" departDelay="0.00" arrival="252.90" arrivalLane="32425190#1_1" arrivalPos="142.43" arrivalPosLat="0.00" arrivalSpeed="13.89" duration="165.80" routeLength="1067.05" waitingTime="108.80" waitingCount="1" stopTime="0.00" timeLoss="119.16" rerouteNo="1" devices="tripinfo_slow_am_ramp_CalambatoNeighbor.1 routing_slow_am_ramp_CalambatoNeighbor.1" vType="jeep" speedFactor="1.00" vaporized=""/>
    <tripinfo id="slow_am_ramp_NeighbortoCalamba.1" depart="201.70" departLane="-32425190#1_1" departPos="5.10" departPosLat="0.00" departSpeed="13.48" departDelay="0.00" arrival="253.40" arrivalLane="-32425220#0_2" arrivalPos="290.87" arrivalPosLat="0.00" arrivalSpeed="26.95" duration="51.70" routeLength="1056.50" waitingTime="0.00" waitingCount="0" stopTime="0.00" timeLoss="4.50" rerouteNo="1" devices="tripinfo_slow_am_ramp_NeighbortoCalamba.1 routing_slow_am_ramp_NeighbortoCalamba.1" vType="car" speedFactor="0.97" vaporized=""/>
    <tripinfo id="slow_am_ramp_CalambatoNeighbor.2" depart="156.50" departLane="32425220#0_2" departPos="5.10" departPosLat="0.00" departSpeed="27.59" departDelay="0.00" arrival="258.80" arrivalLane="32425190#1_1" arrivalPos="142.43" arrivalPosLat="0.00" arrivalSpeed="13.79" duration="102.30" routeLength="1070.05" waitingTime="41.70" waitingCount="1" stopTime="0.00" timeLoss="55.20" rerouteNo="1" devices="tripinfo_slow_am_ramp_CalambatoNeighbor.2 routing_slow_am_ramp_CalambatoNeighbor.2" vType="car" speedFactor="0.99" vaporized=""/>
    <tripinfo id="slow_am_ramp_NeighbortoCalamba.2" depart="212.70" departLane="-32425190#1_1" departPos="5.10" departPosLat="0.00" departSpeed="12.47" departDelay="0.00" arrival="268.00" arrivalLane="-32425220#0_2" arrivalPos="290.87" arrivalPosLat="0.00" arrivalSpeed="24.81" duration="55.30" routeLength="1056.50" waitingTime="0.00" waitingCount="0" stopTime="0.00" timeLoss="4.28" rerouteNo="1" devices="tripinfo_slow_am_ramp_NeighbortoCalamba.2 routing_slow_am_ramp_NeighbortoCalamba.2" vType="car" speedFactor="0.90" vaporized=""/>
    <tripinfo id="slow_am_ramp_CalambatoStaRosa.6" depart="57.10" departLane="32425220#0_1" departPos="5.10" departPosLat="0.00" departSpeed="27.74" departDelay="0.00" arrival="279.60" arrivalLane="549232953#10_1" arrivalPos="967.06" arrivalPosLat="0.00" arrivalSpeed="27.67" duration="222.50" routeLength="3155.57" waitingTime="97.40" waitingCount="1" stopTime="0.00" timeLoss="108.70" rerouteNo="1" devices="tripinfo_slow_am_ramp_CalambatoStaRosa.6 routing_slow_am_ramp_CalambatoStaRosa.6" vType="car" speedFactor="1.00" vaporized=""/>
    <tripinfo id="slow_am_ramp_NeighbortoStaRosa.1" depart="92.30" departLane="-32425190#1_1" departPos="2.30" departPosLat="0.00" departSpeed="14.48" departDelay="0.00" arrival="280.90" arrivalLane="549232953#10_1" arrivalPos="967.06" arrivalPosLat="0.00" arrivalSpeed="28.88" duration="188.60" routeLength="2486.66" waitingTime="84.20" waitingCount="1" stopTime="0.00" timeLoss="94.85" rerouteNo="1" devices="tripinfo_slow_am_ramp_NeighbortoStaRosa.1 routing_slow_am_ramp_NeighbortoStaRosa.1" vType="tricycle" speedFactor="1.04" vaporized=""/>
    <tripinfo id="slow_am_ramp_NeighbortoStaRosa.2" depart="117.10" departLane="-32425190#1_1" departPos="7.20" departPosLat="0.00" departSpeed="13.51" departDelay="0.00" arrival="293.70" arrivalLane="549232953#10_2" arrivalPos="967.06" arrivalPosLat="0.00" arrivalSpeed="26.98" duration="176.60" routeLength="2481.76" waitingTime="55.20" waitingCount="2" stopTime="0.00" timeLoss="76.40" rerouteNo="1" devices="tripinfo_slow_am_ramp_NeighbortoStaRosa.2 routing_slow_am_ramp_NeighbortoStaRosa.2" vType="truck" speedFactor="0.97" vaporized=""/>
    <tripinfo id="slow_am_ramp_CalambatoStaRosa.5" depart="56.20" departLane="32425220#0_2" departPos="7.20" departPosLat="0.00" departSpeed="24.90" departDelay="0.00" arrival="294.70" arrivalLane="549232953#10_1" arrivalPos="967.06" arrivalPosLat="-0.00" arrivalSpeed="24.85" duration="238.50" routeLength="3153.47" waitingTime="87.90" waitingCount="2" stopTime="0.00" timeLoss="111.85" rerouteNo="1" devices="tripinfo_slow_am_ramp_CalambatoStaRosa.5 routing_slow_am_ramp_CalambatoStaRosa.5" vType="truck" speedFactor="0.90" vaporized=""/>
    <tripinfo id="slow_am_ramp_StaRosatoCalamba.5" depart="46.60" departLane="-549232953#10_2" departPos="5.10" departPosLat="0.00" departSpeed="21.17" departDelay="0.00" arrival="297.20" arrivalLane="-32425220#0_1" arrivalPos="290.87" arrivalPosLat="-0.00" arrivalSpeed="21.10" duration="250.60" routeLength="3152.27" waitingTime="85.70" waitingCount="2" stopTime="0.00" timeLoss="101.62" rerouteNo="1" devices="tripinfo_slow_am_ramp_StaRosatoCalamba.5 routing_slow_am_ramp_StaRosatoCalamba.5" vType="car" speedFactor="0.76" vaporized=""/>
    <tripinfo id="slow_am_ramp_StaRosatoCalamba.10" depart="125.80" departLane="-549232953#10_2" departPos="8.10" departPosLat="0.00" departSpeed="27.78" departDelay="0.00" arrival="299.00" arrivalLane="-32425220#0_1" arrivalPos="290.87" arrivalPosLat="-0.00" arrivalSpeed="23.58" duration="173.20" routeLength="3149.27" waitingTime="28.00" waitingCount="2" stopTime="0.00" timeLoss="59.80" rerouteNo="1" devices="tripinfo_slow_am_ramp_StaRosatoCalamba.10 routing_slow_am_ramp_StaRosatoCalamba.10" vType="jeep" speedFactor="1.00" vaporized=""/>
    <tripinfo id="slow_am_ramp_CalambatoBanlic.2" depart="62.80" departLane="32425220#0_2" departPos="5.10" departPosLat="0.00" departSpeed="27.46" departDelay="0.00" arrival="299.70" arrivalLane="-1346113028#0_1" arrivalPos="507.75" arrivalPosLat="-0.00" arrivalSpeed="8.18" duration="236.90" routeLength="1737.47" waitingTime="81.20" waitingCount="1" stopTime="0.00" timeLoss="99.96" rerouteNo="1" devices="tripinfo_slow_am_ramp_CalambatoBanlic.2 routing_slow_am_ramp_CalambatoBanlic.2" vType="car" speedFactor="0.99" vaporized=""/>
    <tripinfo id="slow_am_ramp_BanlictoCalamba.0" depart="13.90" departLane="1346113028#0_1" departPos="7.20" departPosLat="0.00" departSpeed="8.31" departDelay="0.00" arrival="300.40" arrivalLane="-32425220#0_1" arrivalPos="290.87" arrivalPosLat="0.00" arrivalSpeed="24.96" duration="286.50" routeLength="1740.43" waitingTime="133.40" waitingCount="1" stopTime="0.00" timeLoss="150.88" rerouteNo="1" devices="tripinfo_slow_am_ramp_BanlictoCalamba.0 routing_slow_am_ramp_BanlictoCalamba.0" vType="truck" speedFactor="1.00" vaporized=""/>
    <tripinfo id="slow_am_ramp_BanlictoCalamba.1" depart="62.00" departLane="1346113028#0_1" departPos="5.10" departPosLat="0.00" departSpeed="8.48" departDelay="0.00" arrival="301.70" arrivalLane="-32425220#0_1" arrivalPos="290.87" arrivalPosLat="-0.00" arrivalSpeed="27.09" duration="239.70" routeLength="1742.53" waitingTime="86.60" waitingCount="1" stopTime="0.00" timeLoss="106.69" rerouteNo="1" devices="tripinfo_slow_am_ramp_BanlictoCalamba.1 routing_slow_am_ramp_BanlictoCalamba.1" vType="car" speedFactor="1.02" vaporized=""/>