<?xml version="1.0" encoding="UTF-8"?>

<!-- generated on 2026-02-24 13:24:04 by Eclipse SUMO sumo Version 1.24.0
<sumoConfiguration xmlns:xsi="http://www.w3.org/2001/XMLSchema-instance" xsi:noNamespaceSchemaLocation="http://sumo.dlr.de/xsd/sumoConfiguration.xsd">

    <input>
        <net-file value="Banlic-Mamatid_traci/network/banlic-mamatid_signalized.net.xml"/>
        <route-files value="Banlic-Mamatid_traci/demand/flows_training.rou.xml"/>
        <additional-files value="Banlic-Mamatid_traci/additionals/banlic-mamatid.poly.xml,Banlic-Mamatid_traci/ additionals/banlic-mamatid.add.xml"/>
    </input>

    <output>
        <tripinfo-output value="Banlic-Mamatid_traci/output_A2C/SD_A2C_trips.xml"/>
        <statistic-output value="Banlic-Mamatid_traci/output_A2C/SD_A2C_stats.xml"/>
    </output>

    <time>
        <begin value="0"/>
        <end value="10800"/>
        <step-length value="0.1"/>
    </time>

    <processing>
        <lateral-resolution value="0.1"/>
        <collision.action value="none"/>
        <collision.check-junctions value="false"/>
        <collision.mingap-factor value="0"/>
    </processing>

    <report>
        <no-warnings value="true"/>
    </report>

    <traci_server>
        <remote-port value="62934"/>
    </traci_server>

    <gui_only>
        <delay value="0"/>
    </gui_only>

</sumoConfiguration>
-->

<tripinfos xmlns:xsi="http://www.w3.org/2001/XMLSchema-instance" xsi:noNamespaceSchemaLocation="http://sumo.dlr.de/xsd/tripinfo_file.xsd">
    <tripinfo id="slow_am_ramp_NeighbortoCalamba.0" depart="15.30" departLane="-32425190#1_1" departPos="2.30" departPosLat="0.00" departSpeed="14.03" departDelay="0.00" arrival="66.60" arrivalLane="-32425220#0_2" arrivalPos="290.87" arrivalPosLat="0.00" arrivalSpeed="27.96" duration="51.30" routeLength="1059.30" waitingTime="0.00" waitingCount="0" stopTime="0.00" timeLoss="5.77" rerouteNo="1" devices="tripinfo_slow_am_ramp_NeighbortoCalamba.0 routing_slow_am_ramp_NeighbortoCalamba.0" vType="tricycle" speedFactor="1.01" vaporized=""/>
    <tripinfo id="slow_am_ramp_NeighbortoStaRosa.0" depart="1.20" departLane="-32425190#1_1" departPos="5.10" departPosLat="0.00" departSpeed="13.68" departDelay="0.00" arrival="103.80" arrivalLane="549232953#10_1" arrivalPos="967.06" arrivalPosLat="0.00" arrivalSpeed="27.25" duration="102.60" routeLength="2483.86" waitingTime="0.00" waitingCount="0" stopTime="0.00" timeLoss="3.61" rerouteNo="1" devices="tripinfo_slow_am_ramp_NeighbortoStaRosa.0 routing_slow_am_ramp_NeighbortoStaRosa.0" vType="car" speedFactor="0.99" vaporized=""/>
    <tripinfo id="slow_am_ramp_StaRosatoCalamba.0" depart="3.00" departLane="-549232953#10_1" departPos="2.30" departPosLat="0.00" departSpeed="28.93" departDelay="0.00" arrival="123.90" arrivalLane="-32425220#0_1" arrivalPos="290.87" arrivalPosLat="0.00" arrivalSpeed="28.83" duration="120.90" routeLength="3155.07" waitingTime="6.90" waitingCount="1" stopTime="0.00" timeLoss="11.85" rerouteNo="1" devices="tripinfo_slow_am_ramp_StaRosatoCalamba.0 routing_slow_am_ramp_StaRosatoCalamba.0" vType="motorcycle" speedFactor="1.04" vaporized=""/>
    <tripinfo id="slow_am_ramp_StaRosatoCalamba.1" depart="6.90" departLane="-549232953#10_2" departPos="2.30" departPosLat="0.00" departSpeed="26.42" departDelay="0.00" arrival="126.60" arrivalLane="-32425220#0_2" arrivalPos="290.87" arrivalPosLat="0.00" arrivalSpeed="26.36" duration="119.70" routeLength="3155.07" waitingTime="0.00" waitingCount="0" stopTime="0.00" timeLoss="0.22" rerouteNo="1" devices="tripinfo_slow_am_ramp_StaRosatoCalamba.1 routing_slow_am_ramp_StaRosatoCalamba.1" vType="tricycle" speedFactor="0.95" vaporized=""/>
    <tripinfo id="slow_am_ramp_StaRosatoCalamba.2" depart="8.90" departLane="-549232953#10_1" departPos="7.20" departPosLat="0.00" departSpeed="26.64" departDelay="0.00" arrival="129.00" arrivalLane="-32425220#0_1" arrivalPos="290.87" arrivalPosLat="0.00" arrivalSpeed="26.63" duration="120.10" routeLength="3150.17" waitingTime="0.00" waitingCount="0" stopTime="0.00" timeLoss="1.83" rerouteNo="1" devices="tripinfo_slow_am_ramp_StaRosatoCalamba.2 routing_slow_am_ramp_StaRosatoCalamba.2" vType="truck" speedFactor="0.96" vaporized=""/>
    <tripinfo id="slow_am_ramp_StaRosatoCalamba.3" depart="16.40" departLane="-549232953#10_2" departPos="5.10" departPosLat="0.00" departSpeed="26.25" departDelay="0.00" arrival="136.80" arrivalLane="-32425220#0_1" arrivalPos="290.87" arrivalPosLat="-0.00" arrivalSpeed="26.16" duration="120.40" routeLength="3152.27" waitingTime="0.00" waitingCount="0" stopTime="0.00" timeLoss="0.30" rerouteNo="1" devices="tripinfo_slow_am_ramp_StaRosatoCalamba.3 routing_slow_am_ramp_StaRosatoCalamba.3" vType="car" speedFactor="0.94" vaporized=""/>
    <tripinfo id="slow_am_ramp_StaRosatoCalamba.4" depart="41.40" departLane="-549232953#10_2" departPos="5.10" departPosLat="0.00" departSpeed="31.78" departDelay="0.00" arrival="140.80" arrivalLane="-32425220#0_1" arrivalPos="290.87" arrivalPosLat="-0.00" arrivalSpeed="31.73" duration="99.40" routeLength="3152.27" waitingTime="0.00" waitingCount="0" stopTime="0.00" timeLoss="0.21" rerouteNo="1" devices="tripinfo_slow_am_ramp_StaRosatoCalamba.4 routing_slow_am_ramp_StaRosatoCalamba.4" vType="car" speedFactor="1.14" vaporized=""/>
    <tripinfo id="slow_am_ramp_CalambatoStaRosa.0" depart="6.60" departLane="32425220#0_1" departPos="8.10" departPosLat="0.00" departSpeed="27.78" departDelay="0.00" arrival="141.30" arrivalLane="549232953#10_1" arrivalPos="967.06" arrivalPosLat="0.00" arrivalSpeed="27.74" duration="134.70" routeLength="3152.57" waitingTime="2.10" waitingCount="1" stopTime="0.00" timeLoss="21.19" rerouteNo="1" devices="tripinfo_slow_am_ramp_CalambatoStaRosa.0 routing_slow_am_ramp_CalambatoStaRosa.0" vType="jeep" speedFactor="1.00" vaporized=""/>
    <tripinfo id="slow_am_ramp_CalambatoStaRosa.1" depart="17.30" departLane="32425220#0_1" departPos="12.10" departPosLat="0.00" departSpeed="27.78" departDelay="0.00" arrival="142.70" arrivalLane="549232953#10_1" arrivalPos="967.06" arrivalPosLat="-0.00" arrivalSpeed="27.77" duration="125.40" routeLength="3148.57" waitingTime="0.00" waitingCount="0" stopTime="0.00" timeLoss="12.00" rerouteNo="1" devices="tripinfo_slow_am_ramp_CalambatoStaRosa.1 routing_slow_am_ramp_CalambatoStaRosa.1" vType="bus" speedFactor="1.00" vaporized=""/>
    <tripinfo id="slow_am_ramp_StaRosatoCalamba.6" depart="48.10" departLane="-549232953#10_1" departPos="5.10" departPosLat="0.00" departSpeed="29.67" departDelay="0.00" arrival="163.20" arrivalLane="-32425220#0_2" arrivalPos="290.87" arrivalPosLat="0.00" arrivalSpeed="29.61" duration="115.10" routeLength="3152.27" waitingTime="0.00" waitingCount="0" stopTime="0.00" timeLoss="8.83" rerouteNo="1" devices="tripinfo_slow_am_ramp_StaRosatoCalamba.6 routing_slow_am_ramp_StaRosatoCalamba.6" vType="car" speedFactor="1.07" vaporized=""/>
    <tripinfo id="slow_am_ramp_StaRosatoCalamba.8" depart="53.80" departLane="-549232953#10_1" departPos="7.20" departPosLat="0.00" departSpeed="28.29" departDelay="0.00" arrival="175.60" arrivalLane="-32425220#0_2" arrivalPos="290.87" arrivalPosLat="0.00" arrivalSpeed="28.27" duration="121.80" routeLength="3150.17" waitingTime="0.00" waitingCount="0" stopTime="0.00" timeLoss="10.43" rerouteNo="1" devices="tripinfo_slow_am_ramp_StaRosatoCalamba.8 routing_slow_am_ramp_StaRosatoCalamba.8" vType="truck" speedFactor="1.02" vaporized=""/>
    <tripinfo id="slow_am_ramp_StaRosatoCalamba.9" depart="54.10" departLane="-549232953#10_2" departPos="8.10" departPosLat="0.00" departSpeed="27.78" departDelay="0.00" arrival="176.20" arrivalLane="-32425220#0_1" arrivalPos="290.87" arrivalPosLat="-0.00" arrivalSpeed="27.75" duration="122.10" routeLength="3149.27" waitingTime="0.00" waitingCount="0" stopTime="0.00" timeLoss="8.73" rerouteNo="1" devices="tripinfo_slow_am_ramp_StaRosatoCalamba.9 routing_slow_am_ramp_StaRosatoCalamba.9" vType="jeep" speedFactor="1.00" vaporized=""/>
    <tripinfo id="slow_am_ramp_StaRosatoCalamba.7" depart="48.40" departLane="-549232953#10_2" departPos="5.10" departPosLat="0.00" departSpeed="22.74" departDelay="0.00" arrival="177.60" arrivalLane="-32425220#0_1" arrivalPos="290.87" arrivalPosLat="-0.00" arrivalSpeed="27.77" duration="129.20" routeLength="3152.27" waitingTime="2.10" waitingCount="1" stopTime="0.00" timeLoss="15.85" rerouteNo="1" devices="tripinfo_slow_am_ramp_StaRosatoCalamba.7 routing_slow_am_ramp_StaRosatoCalamba.7" vType="car" speedFactor="1.00" vaporized=""/>
    <tripinfo id="slow_am_ramp_StaRosatoBanlic.0" depart="18.00" departLane="-549232953#10_1" departPos="2.30" departPosLat="0.00" departSpeed="31.62" departDelay="0.00" arrival="186.90" arrivalLane="-1346113028#0_1" arrivalPos="507.75" arrivalPosLat="0.00" arrivalSpeed="9.41" duration="168.90" routeLength="3138.61" waitingTime="0.00" waitingCount="0" stopTime="0.00" timeLoss="5.38" rerouteNo="1" devices="tripinfo_slow_am_ramp_StaRosatoBanlic.0 routing_slow_am_ramp_StaRosatoBanlic.0" vType="tricycle" speedFactor="1.14" vaporized=""/>
    <tripinfo id="slow_am_ramp_StaRosatoCalamba.5" depart="46.60" departLane="-549232953#10_2" departPos="5.10" departPosLat="0.00" departSpeed="21.17" departDelay="0.00" arrival="200.50" arrivalLane="-32425220#0_1" arrivalPos="290.87" arrivalPosLat="-0.00" arrivalSpeed="21.09" duration="153.90" routeLength="3152.27" waitingTime="0.00" waitingCount="0" stopTime="0.00" timeLoss="4.95" rerouteNo="1" devices="tripinfo_slow_am_ramp_StaRosatoCalamba.5 routing_slow_am_ramp_StaRosatoCalamba.5" vType="car" speedFactor="0.76" vaporized=""/>
    <personinfo id="slow_am_ramp_SavemoretoJeepPila.1" depart="72.00" type="ped" speedFactor="1.17" duration="134.60" waitingTime="38.00" timeLoss="47.79" traveltime="134.60">
        <walk depart="72.00" departPos="0.00" arrival="206.60" arrivalPos="25.71" duration="134.60" routeLength="140.94" timeLoss="47.79" maxSpeed="1.62" waitingTime="38.00"/>
    </personinfo>
    <personinfo id="slow_am_ramp_InasaltoPalengke.0" depart="0.00" type="ped" speedFactor="1.07" duration="214.30" waitingTime="178.10" timeLoss="181.81" traveltime="214.30">
        <walk depart="0.00" departPos="0.00" arrival="214.30" arrivalPos="34.28" duration="214.30" routeLength="48.06" timeLoss="181.81" maxSpeed="1.48" waitingTime="178.10"/>
    </personinfo>
    <personinfo id="slow_am_ramp_SavemoretoJeepPila.0" depart="0.00" type="ped" speedFactor="0.85" duration="214.40" waitingTime="82.70" timeLoss="95.70" traveltime="214.40">
        <walk depart="0.00" departPos="0.00" arrival="214.40" arrivalPos="25.71" duration="214.40" routeLength="140.94" timeLoss="95.70" maxSpeed="1.19" waitingTime="82.70"/>
    </personinfo>
    <personinfo id="slow_am_ramp_InasaltoPalengke.2" depart="144.00" type="ped" speedFactor="0.93" duration="73.80" waitingTime="32.10" timeLoss="36.47" traveltime="73.80">
        <walk depart="144.00" departPos="0.00" arrival="217.80" arrivalPos="34.28" duration="73.80" routeLength="48.06" timeLoss="36.47" maxSpeed="1.29" waitingTime="32.10"/>
    </personinfo>
    <personinfo id="slow_am_ramp_InasaltoPalengke.1" depart="72.00" type="ped" speedFactor="0.92" duration="147.00" waitingTime="104.80" timeLoss="109.29" traveltime="147.00">
        <walk depart="72.00" departPos="0.00" arrival="219.00" arrivalPos="34.28" duration="147.00" routeLength="48.06" timeLoss="109.29" maxSpeed="1.27" waitingTime="104.80"/>
    </personinfo>
    <personinfo id="slow_am_ramp_InasaltoSavemore.0" depart="0.00" type="ped" speedFactor="1.07" duration="225.00" waitingTime="178.10" timeLoss="182.80" traveltime="225.00">
        <walk depart="0.00" departPos="0.00" arrival="225.00" arrivalPos="44.65" duration="225.00" routeLength="62.53" timeLoss="182.80" maxSpeed="1.48" waitingTime="178.10"/>
    </personinfo>
    <personinfo id="slow_am_ramp_SavemoretoPalengke.0" depart="0.00" type="ped" speedFactor="1.06" duration="225.30" waitingTime="111.00" timeLoss="122.29" traveltime="225.30">
        <walk depart="0.00" departPos="0.00" arrival="225.30" arrivalPos="34.28" duration="225.30" routeLength="151.65" timeLoss="122.29" maxSpeed="1.47" waitingTime="111.00"/>
    </personinfo>
    <personinfo id="slow_am_ramp_PalengketoInasal.2" depart="144.00" type="ped" speedFactor="0.99" duration="82.10" waitingTime="34.90" timeLoss="39.50" traveltime="82.10">
        <walk depart="144.00" departPos="0.00" arrival="226.10" arrivalPos="44.65" duration="82.10" routeLength="58.43" timeLoss="39.50" maxSpeed="1.37" waitingTime="34.90"/>
    </personinfo>
    <personinfo id="slow_am_ramp_SavemoretoInasal.0" depart="0.00" type="ped" speedFactor="1.06" duration="228.70" waitingTime="114.20" timeLoss="186.43" traveltime="228.70">
        <walk depart="0.00" departPos="0.00" arrival="228.70" arrivalPos="44.65" duration="228.70" routeLength="62.53" timeLoss="186.43" maxSpeed="1.48" waitingTime="114.20"/>
    </personinfo>
    <personinfo id="slow_am_ramp_PalengketoInasal.0" depart="0.00" type="ped" speedFactor="0.93" duration="229.60" waitingTime="179.50" timeLoss="184.46" traveltime="229.60">
        <walk depart="0.00" departPos="0.00" arrival="229.60" arrivalPos="44.65" duration="229.60" routeLength="58.43" timeLoss="184.46" maxSpeed="1.29" waitingTime="179.50"/>
    </personinfo>
    <personinfo id="slow_am_ramp_JeepPilatoSavemore.0" depart="0.00" type="ped" speedFactor="1.07" duration="230.80" waitingTime="177.30" timeLoss="183.31" traveltime="230.80">
        <walk depart="0.00" departPos="0.00" arrival="230.80" arrivalPos="44.65" duration="230.80" routeLength="70.59" timeLoss="183.31" maxSpeed="1.49" waitingTime="177.30"/>
    </personinfo>
    <personinfo id="slow_am_ramp_SavemoretoPalengke.1" depart="72.00" type="ped" speedFactor="0.94" duration="159.10" waitingTime="29.40" timeLoss="42.73" traveltime="159.10">
        <walk depart="72.00" departPos="0.00" arrival="231.10" arrivalPos="34.28" duration="159.10" routeLength="151.65" timeLoss="42.73" maxSpeed="1.30" waitingTime="29.40"/>
    </personinfo>
    <personinfo id="slow_am_ramp_InasaltoJeepPila.2" depart="144.00" type="ped" speedFactor="1.02" duration="88.00" waitingTime="35.00" timeLoss="40.77" traveltime="88.00">
        <walk depart="144.00" departPos="0.00" arrival="232.00" arrivalPos="25.71" duration="88.00" routeLength="67.08" timeLoss="40.77" maxSpeed="1.42" waitingTime="35.00"/>
    </personinfo>
    <personinfo id="slow_am_ramp_PalengketoInasal.1" depart="72.00" type="ped" speedFactor="0.88" duration="161.30" waitingTime="107.80" timeLoss="113.38" traveltime="161.30">
        <walk depart="72.00" departPos="0.00" arrival="233.30" arrivalPos="44.65" duration="161.30" routeLength="58.43" timeLoss="113.38" maxSpeed="1.22" waitingTime="107.80"/>
    </personinfo>
    <personinfo id="slow_am_ramp_SavemoretoInasal.1" depart="72.00" type="ped" speedFactor="0.96" duration="161.70" waitingTime="31.60" timeLoss="114.64" traveltime="161.70">
        <walk depart="72.00" departPos="0.00" arrival="233.70" arrivalPos="44.65" duration="161.70" routeLength="62.53" timeLoss="114.64" maxSpeed="1.33" waitingTime="31.60"/>
    </personinfo>
    <personinfo id="slow_am_ramp_InasaltoJeepPila.0" depart="0.00" type="ped" speedFactor="0.97" duration="234.60" waitingTime="179.20" timeLoss="184.67" traveltime="234.60">
        <walk depart="0.00" departPos="0.00" arrival="234.60" arrivalPos="25.71" duration="234.60" routeLength="67.08" timeLoss="184.67" maxSpeed="1.34" waitingTime="179.20"/>
    </personinfo>
    <personinfo id="slow_am_ramp_InasaltoSavemore.1" depart="72.00" type="ped" speedFactor="0.89" duration="162.60" waitingTime="105.90" timeLoss="111.97" traveltime="162.60">
        <walk depart="72.00" departPos="0.00" arrival="234.60" arrivalPos="44.65" duration="162.60" routeLength="62.53" timeLoss="111.97" maxSpeed="1.24" waitingTime="105.90"/>
    </personinfo>
    <personinfo id="slow_am_ramp_InasaltoSavemore.2" depart="144.00" type="ped" speedFactor="0.98" duration="91.00" waitingTime="36.80" timeLoss="44.83" traveltime="91.00">
        <walk depart="144.00" departPos="0.00" arrival="235.00" arrivalPos="44.65" duration="91.00" routeLength="62.53" timeLoss="44.83" maxSpeed="1.35" waitingTime="36.80"/>
    </personinfo>
    <tripinfo id="slow_am_ramp_StaRosatoBanlic.1" depart="42.70" departLane="-549232953#10_1" departPos="5.10" departPosLat="0.00" departSpeed="27.03" departDelay="0.00" arrival="236.50" arrivalLane="-1346113028#0_1" arrivalPos="507.75" arrivalPosLat="0.00" arrivalSpeed="8.04" duration="193.80" routeLength="3135.81" waitingTime="0.00" waitingCount="0" stopTime="0.00" timeLoss="2.62" rerouteNo="1" devices="tripinfo_slow_am_ramp_StaRosatoBanlic.1 routing_slow_am_ramp_StaRosatoBanlic.1" vType="car" speedFactor="0.97" vaporized=""/>
    <personinfo id="slow_am_ramp_JeepPilatoSavemore.1" depart="72.00" type="ped" speedFactor="0.94" duration="166.20" waitingTime="105.80" timeLoss="111.97" traveltime="166.20">
        <walk depart="72.00" departPos="0.00" arrival="238.20" arrivalPos="44.65" duration="166.20" routeLength="70.59" timeLoss="111.97" maxSpeed="1.30" waitingTime="105.80"/>
    </personinfo>
    <personinfo id="slow_am_ramp_PalengketoSavemore.0" depart="0.00" type="ped" speedFactor="0.96" duration="238.60" waitingTime="178.10" timeLoss="184.22" traveltime="238.60">
        <walk depart="0.00" departPos="0.00" arrival="238.60" arrivalPos="44.65" duration="238.60" routeLength="72.73" timeLoss="184.22" maxSpeed="1.34" waitingTime="178.10"/>
    </personinfo>
    <personinfo id="slow_am_ramp_PalengketoSavemore.1" depart="72.00" type="ped" speedFactor="1.00" duration="167.00" waitingTime="108.30" timeLoss="114.87" traveltime="167.00">
        <walk depart="72.00" departPos="0.00" arrival="239.00" arrivalPos="44.65" duration="167.00" routeLength="72.73" timeLoss="114.87" maxSpeed="1.40" waitingTime="108.30"/>
    </personinfo>
    <personinfo id="slow_am_ramp_InasaltoJeepPila.1" depart="72.00" type="ped" speedFactor="0.89" duration="167.40" waitingTime="106.60" timeLoss="112.86" traveltime="167.40">
        <walk depart="72.00" departPos="0.00" arrival="239.40" arrivalPos="25.71" duration="167.40" routeLength="67.08" timeLoss="112.86" maxSpeed="1.23" waitingTime="106.60"/>
    </personinfo>
    <personinfo id="slow_am_ramp_PalengketoSavemore.2" depart="144.00" type="ped" speedFactor="1.07" duration="95.40" waitingTime="38.50" timeLoss="46.52" traveltime="95.40">
        <walk depart="144.00" departPos="0.00" arrival="239.40" arrivalPos="44.65" duration="95.40" routeLength="72.73" timeLoss="46.52" maxSpeed="1.49" waitingTime="38.50"/>
    </personinfo>
    <tripinfo id="slow_am_ramp_StaRosatoNeighbor.0" depart="127.10" departLane="-549232953#10_1" departPos="5.10" departPosLat="0.00" departSpeed="29.43" departDelay="0.00" arrival="239.40" arrivalLane="32425190#1_1" arrivalPos="142.43" arrivalPosLat="0.00" arrivalSpeed="14.70" duration="112.30" routeLength="2475.52" waitingTime="12.00" waitingCount="1" stopTime="0.00" timeLoss="20.75" rerouteNo="1" devices="tripinfo_slow_am_ramp_StaRosatoNeighbor.0 routing_slow_am_ramp_StaRosatoNeighbor.0" vType="car" speedFactor="1.06" vaporized=""/>
    <personinfo id="slow_am_ramp_JeepPilatoSavemore.2" depart="144.00" type="ped" speedFactor="0.98" duration="96.50" waitingTime="38.30" timeLoss="44.68" traveltime="96.50">
        <walk depart="144.00" departPos="0.00" arrival="240.50" arrivalPos="44.65" duration="96.50" routeLength="70.59" timeLoss="44.68" maxSpeed="1.36" waitingTime="38.30"/>
    </personinfo>
    <personinfo id="slow_am_ramp_JeepPilatoInasal.0" depart="0.00" type="ped" speedFactor="0.98" duration="247.90" waitingTime="177.20" timeLoss="184.52" traveltime="247.90">
        <walk depart="0.00" departPos="0.00" arrival="247.90" arrivalPos="44.65" duration="247.90" routeLength="86.02" timeLoss="184.52" maxSpeed="1.36" waitingTime="177.20"/>
    </personinfo>
    <personinfo id="slow_am_ramp_JeepPilatoInasal.2" depart="144.00" type="ped" speedFactor="1.02" duration="104.30" waitingTime="34.50" timeLoss="43.48" traveltime="104.30">
        <walk depart="144.00" departPos="0.00" arrival="248.30" arrivalPos="44.65" duration="104.30" routeLength="86.02" timeLoss="43.48" maxSpeed="1.41" waitingTime="34.50"/>
    </personinfo>
    <personinfo id="slow_am_ramp_JeepPilatoInasal.1" depart="72.00" type="ped" speedFactor="1.03" duration="176.70" waitingTime="108.10" timeLoss="116.71" traveltime="176.70">
        <walk depart="72.00" departPos="0.00" arrival="248.70" arrivalPos="44.65" duration="176.70" routeLength="86.02" timeLoss="116.71" maxSpeed="1.43" waitingTime="108.10"/>
    </personinfo>
    <tripinfo id="slow_am_ramp_CalambatoNeighbor.0" depart="22.80" departLane="32425220#0_2" departPos="8.10" departPosLat="0.00" departSpeed="27.78" departDelay="0.00" arrival="253.30" arrivalLane="32425190#1_1" arrivalPos="142.43" arrivalPosLat="0.00" arrivalSpeed="13.87" duration="230.50" routeLength="1067.05" waitingTime="173.40" waitingCount="1" stopTime="0.00" timeLoss="183.88" rerouteNo="1" devices="tripinfo_slow_am_ramp_CalambatoNeighbor.0 routing_slow_am_ramp_CalambatoNeighbor.0" vType="jeep" speedFactor="1.00" vaporized=""/>
    <tripinfo id="slow_am_ramp_CalambatoNeighbor.1" depart="87.10" departLane="32425220#0_2" departPos="8.10" departPosLat="0.00" departSpeed="27.78" departDelay="0.00" arrival="261.10" arrivalLane="32425190#1_1" arrivalPos="142.43" arrivalPosLat="0.00" arrivalSpeed="13.84" duration="174.00" routeLength="1067.05" waitingTime="107.80" waitingCount="1" stopTime="0.00" timeLoss="127.34" rerouteNo="1" devices="tripinfo_slow_am_ramp_CalambatoNeighbor.1 routing_slow_am_ramp_CalambatoNeighbor.1" vType="jeep" speedFactor="1.00" vaporized=""/>
    <tripinfo id="slow_am_ramp_CalambatoNeighbor.2" depart="156.50" departLane="32425220#0_2" departPos="5.10" departPosLat="0.00" departSpeed="27.59" departDelay="0.00" arrival="270.90" arrivalLane="32425190#1_1" arrivalPos="142.43" arrivalPosLat="0.00" arrivalSpeed="13.70" duration="114.40" routeLength="1070.05" waitingTime="50.30" waitingCount="1" stopTime="0.00" timeLoss="67.29" rerouteNo="1" devices="tripinfo_slow_am_ramp_CalambatoNeighbor.2 routing_slow_am_ramp_CalambatoNeighbor.2" vType="car" speedFactor="0.99" vaporized=""/>
    <tripinfo id="slow_am_ramp_StaRosatoBanlic.2" depart="84.00" departLane="-549232953#10_2" departPos="8.10" departPosLat="0.00" departSpeed="27.78" departDelay="0.00" arrival="272.40" arrivalLane="-1346113028#0_1" arrivalPos="507.75" arrivalPosLat="0.00" arrivalSpeed="8.33" duration="188.40" routeLength="3132.81" waitingTime="0.00" waitingCount="0" stopTime="0.00" timeLoss="2.57" rerouteNo="1" devices="tripinfo_slow_am_ramp_StaRosatoBanlic.2 routing_slow_am_ramp_StaRosatoBanlic.2" vType="jeep" speedFactor="1.00" vaporized=""/>
    <tripinfo id="slow_am_ramp_StaRosatoBanlic.3" depart="91.80" departLane="-549232953#10_1" departPos="5.10" departPosLat="0.00" departSpeed="27.97" departDelay="0.00" arrival="279.20" arrivalLane="-1346113028#0_1" arrivalPos="507.75" arrivalPosLat="0.00" arrivalSpeed="8.28" duration="187.40" routeLength="3135.81" waitingTime="0.00" waitingCount="0" stopTime="0.00" timeLoss="2.76" rerouteNo="1" devices="tripinfo_slow_am_ramp_StaRosatoBanlic.3 routing_slow_am_ramp_StaRosatoBanlic.3" vType="car" speedFactor="1.01" vaporized=""/>
