<?xml version="1.0" encoding="UTF-8"?>

<!-- generated on 2026-02-24 13:04:14 by Eclipse SUMO sumo Version 1.24.0
<sumoConfiguration xmlns:xsi="http://www.w3.org/2001/XMLSchema-instance" xsi:noNamespaceSchemaLocation="http://sumo.dlr.de/xsd/sumoConfiguration.xsd">

    <input>
        <net-file value="Banlic-Mamatid_traci/network/banlic-mamatid_signalized.net.xml"/>
        <route-files value="Banlic-Mamatid_traci/demand/flows_traffic_jam.rou.xml"/>
        <additional-files value="Banlic-Mamatid_traci/additionals/banlic-mamatid.poly.xml,Banlic-Mamatid_traci/ additionals/banlic-mamatid.add.xml"/>
    </input>

    <output>
        <tripinfo-output value="Banlic-Mamatid_traci/output_A2C/test_jam_heavy_traffic_trips.xml"/>
        <statistic-output value="Banlic-Mamatid_traci/output_A2C/test_jam_heavy_traffic_stats.xml"/>
    </output>

    <time>
        <begin value="0"/>
        <end value="10800"/>
        <step-length value="0.1"/>
    </time>

    <processing>
        <lateral-resolution value="0.1"/>
        <collision.action value="none"/>
        <collision.check-junctions value="false"/>
        <collision.mingap-factor value="0"/>
    </processing>

    <report>
        <no-warnings value="true"/>
    </report>

    <traci_server>
        <remote-port value="8814"/>
    </traci_server>

    <gui_only>
        <delay value="0"/>
    </gui_only>

</sumoConfiguration>
-->

<tripinfos xmlns:xsi="http://www.w3.org/2001/XMLSchema-instance" xsi:noNamespaceSchemaLocation="http://sumo.dlr.de/xsd/tripinfo_file.xsd">
    <tripinfo id="NeighborhoodtoCalamba.0" depart="15.30" departLane="-32425190#1_1" departPos="5.10" departPosLat="0.00" departSpeed="15.01" departDelay="0.00" arrival="62.70" arrivalLane="-32425220#0_2" arrivalPos="290.87" arrivalPosLat="0.00" arrivalSpeed="29.94" duration="47.40" routeLength="1056.50" waitingTime="0.00" waitingCount="0" stopTime="0.00" timeLoss="4.96" rerouteNo="1" devices="tripinfo_NeighborhoodtoCalamba.0 routing_NeighborhoodtoCalamba.0" vType="car" speedFactor="1.08" vaporized=""/>
    <tripinfo id="CalambatoNeighborhood.0" depart="22.80" departLane="32425220#0_2" departPos="2.30" departPosLat="0.00" departSpeed="30.60" departDelay="0.00" arrival="66.60" arrivalLane="32425190#1_1" arrivalPos="142.43" arrivalPosLat="0.00" arrivalSpeed="15.01" duration="43.80" routeLength="1072.85" waitingTime="0.00" waitingCount="0" stopTime="0.00" timeLoss="1.22" rerouteNo="1" devices="tripinfo_CalambatoNeighborhood.0 routing_CalambatoNeighborhood.0" vType="motorcycle" speedFactor="1.10" vaporized=""/>
    <tripinfo id="NeighborhoodtoStaRosa.0" depart="1.20" departLane="-32425190#1_1" departPos="2.30" departPosLat="0.00" departSpeed="15.14" departDelay="0.00" arrival="95.50" arrivalLane="549232953#10_1" arrivalPos="967.06" arrivalPosLat="0.00" arrivalSpeed="30.26" duration="94.30" routeLength="2486.66" waitingTime="0.00" waitingCount="0" stopTime="0.00" timeLoss="4.69" rerouteNo="1" devices="tripinfo_NeighborhoodtoStaRosa.0 routing_NeighborhoodtoStaRosa.0" vType="tricycle" speedFactor="1.09" vaporized=""/>
    <tripinfo id="StaRosatoCalamba.2" depart="8.90" departLane="-549232953#10_1" departPos="5.10" departPosLat="0.00" departSpeed="30.26" departDelay="0.00" arrival="126.90" arrivalLane="-32425220#0_2" arrivalPos="290.87" arrivalPosLat="-0.13" arrivalSpeed="30.13" duration="118.00" routeLength="3152.27" waitingTime="1.50" waitingCount="1" stopTime="0.00" timeLoss="13.82" rerouteNo="1" devices="tripinfo_StaRosatoCalamba.2 routing_StaRosatoCalamba.2" vType="car" speedFactor="1.09" vaporized=""/>
    <tripinfo id="StaRosatoCalamba.1" depart="6.90" departLane="-549232953#10_2" departPos="2.30" departPosLat="0.00" departSpeed="33.73" departDelay="0.00" arrival="128.20" arrivalLane="-32425220#0_1" arrivalPos="290.87" arrivalPosLat="-0.00" arrivalSpeed="32.43" duration="121.30" routeLength="3155.07" waitingTime="14.20" waitingCount="1" stopTime="0.00" timeLoss="27.70" rerouteNo="1" devices="tripinfo_StaRosatoCalamba.1 routing_StaRosatoCalamba.1" vType="tricycle" speedFactor="1.21" vaporized=""/>
    <tripinfo id="CalambatoStaRosa.2" depart="17.30" departLane="32425220#0_1" departPos="5.10" departPosLat="0.00" departSpeed="28.21" departDelay="0.00" arrival="130.20" arrivalLane="549232953#10_1" arrivalPos="967.06" arrivalPosLat="1.55" arrivalSpeed="28.16" duration="112.90" routeLength="3155.57" waitingTime="0.00" waitingCount="0" stopTime="0.00" timeLoss="0.95" rerouteNo="1" devices="tripinfo_CalambatoStaRosa.2 routing_CalambatoStaRosa.2" vType="car" speedFactor="1.02" vaporized=""/>
    <tripinfo id="CalambatoStaRosa.0" depart="6.60" departLane="32425220#0_1" departPos="5.10" departPosLat="0.00" departSpeed="27.45" departDelay="0.00" arrival="133.30" arrivalLane="549232953#10_1" arrivalPos="967.06" arrivalPosLat="0.00" arrivalSpeed="27.38" duration="126.70" routeLength="3155.57" waitingTime="1.50" waitingCount="1" stopTime="0.00" timeLoss="11.74" rerouteNo="1" devices="tripinfo_CalambatoStaRosa.0 routing_CalambatoStaRosa.0" vType="car" speedFactor="0.99" vaporized=""/>
    <tripinfo id="StaRosatoCalamba.4" depart="27.10" departLane="-549232953#10_2" departPos="5.10" departPosLat="0.00" departSpeed="29.41" departDelay="0.00" arrival="134.90" arrivalLane="-32425220#0_2" arrivalPos="290.87" arrivalPosLat="0.00" arrivalSpeed="29.32" duration="107.80" routeLength="3152.27" waitingTime="0.00" waitingCount="0" stopTime="0.00" timeLoss="0.55" rerouteNo="1" devices="tripinfo_StaRosatoCalamba.4 routing_StaRosatoCalamba.4" vType="car" speedFactor="1.06" vaporized=""/>
    <tripinfo id="StaRosatoCalamba.0" depart="3.00" departLane="-549232953#10_1" departPos="7.20" departPosLat="0.00" departSpeed="24.77" departDelay="0.00" arrival="136.80" arrivalLane="-32425220#0_1" arrivalPos="290.87" arrivalPosLat="0.00" arrivalSpeed="24.73" duration="133.80" routeLength="3150.17" waitingTime="0.00" waitingCount="0" stopTime="0.00" timeLoss="6.59" rerouteNo="1" devices="tripinfo_StaRosatoCalamba.0 routing_StaRosatoCalamba.0" vType="truck" speedFactor="0.89" vaporized=""/>
    <tripinfo id="StaRosatoNeighborhood.0" depart="31.00" departLane="-549232953#10_2" departPos="8.10" departPosLat="0.00" departSpeed="27.78" departDelay="0.00" arrival="137.10" arrivalLane="32425190#1_1" arrivalPos="142.43" arrivalPosLat="-0.00" arrivalSpeed="13.87" duration="106.10" routeLength="2472.52" waitingTime="0.00" waitingCount="0" stopTime="0.00" timeLoss="9.21" rerouteNo="1" devices="tripinfo_StaRosatoNeighborhood.0 routing_StaRosatoNeighborhood.0" vType="jeep" speedFactor="1.00" vaporized=""/>
    <tripinfo id="CalambatoStaRosa.1" depart="8.10" departLane="32425220#0_2" departPos="5.10" departPosLat="0.00" departSpeed="24.56" departDelay="0.00" arrival="138.30" arrivalLane="549232953#10_1" arrivalPos="967.06" arrivalPosLat="-0.00" arrivalSpeed="24.45" duration="130.20" routeLength="3155.57" waitingTime="0.00" waitingCount="0" stopTime="0.00" timeLoss="1.70" rerouteNo="1" devices="tripinfo_CalambatoStaRosa.1 routing_CalambatoStaRosa.1" vType="car" speedFactor="0.88" vaporized=""/>
    <tripinfo id="StaRosatoCalamba.5" depart="29.30" departLane="-549232953#10_1" departPos="7.20" departPosLat="0.00" departSpeed="27.63" departDelay="0.00" arrival="143.50" arrivalLane="-32425220#0_2" arrivalPos="290.87" arrivalPosLat="0.00" arrivalSpeed="27.56" duration="114.20" routeLength="3150.17" waitingTime="0.00" waitingCount="0" stopTime="0.00" timeLoss="0.13" rerouteNo="1" devices="tripinfo_StaRosatoCalamba.5 routing_StaRosatoCalamba.5" vType="truck" speedFactor="0.99" vaporized=""/>
    <tripinfo id="StaRosatoCalamba.6" depart="41.40" departLane="-549232953#10_1" departPos="5.10" departPosLat="0.00" departSpeed="28.87" departDelay="0.00" arrival="154.00" arrivalLane="-32425220#0_2" arrivalPos="290.87" arrivalPosLat="0.00" arrivalSpeed="28.85" duration="112.60" routeLength="3152.27" waitingTime="0.00" waitingCount="0" stopTime="0.00" timeLoss="3.38" rerouteNo="1" devices="tripinfo_StaRosatoCalamba.6 routing_StaRosatoCalamba.6" vType="car" speedFactor="1.04" vaporized=""/>
    <tripinfo id="StaRosatoCalamba.3" depart="16.40" departLane="-549232953#10_2" departPos="5.10" departPosLat="0.00" departSpeed="22.87" departDelay="0.00" arrival="154.70" arrivalLane="-32425220#0_1" arrivalPos="290.87" arrivalPosLat="-0.00" arrivalSpeed="22.87" duration="138.30" routeLength="3152.27" waitingTime="0.00" waitingCount="0" stopTime="0.00" timeLoss="0.40" rerouteNo="1" devices="tripinfo_StaRosatoCalamba.3 routing_StaRosatoCalamba.3" vType="car" speedFactor="0.82" vaporized=""/>
    <tripinfo id="StaRosatoCalamba.9" depart="48.10" departLane="-549232953#10_1" departPos="2.30" departPosLat="0.00" departSpeed="32.47" departDelay="0.00" arrival="161.20" arrivalLane="-32425220#0_1" arrivalPos="290.87" arrivalPosLat="0.00" arrivalSpeed="32.30" duration="113.10" routeLength="3155.07" waitingTime="6.00" waitingCount="1" stopTime="0.00" timeLoss="15.92" rerouteNo="1" devices="tripinfo_StaRosatoCalamba.9 routing_StaRosatoCalamba.9" vType="motorcycle" speedFactor="1.17" vaporized=""/>
    <personinfo id="SavemoretoJeepPila.1" depart="48.00" type="ped" speedFactor="1.03" duration="120.60" waitingTime="10.90" timeLoss="22.32" traveltime="120.60">
        <walk depart="48.00" departPos="0.00" arrival="168.60" arrivalPos="25.71" duration="120.60" routeLength="140.94" timeLoss="22.32" maxSpeed="1.43" waitingTime="10.90"/>
    </personinfo>
    <personinfo id="SavemoretoJeepPila.0" depart="0.00" type="ped" speedFactor="0.98" duration="171.20" waitingTime="56.20" timeLoss="68.17" traveltime="171.20">
        <walk depart="0.00" departPos="0.00" arrival="171.20" arrivalPos="25.71" duration="171.20" routeLength="140.94" timeLoss="68.17" maxSpeed="1.37" waitingTime="56.20"/>
    </personinfo>
    <personinfo id="InasaltoPalengke.1" depart="48.00" type="ped" speedFactor="1.06" duration="125.00" waitingTime="88.40" timeLoss="92.23" traveltime="125.00">
        <walk depart="48.00" departPos="0.00" arrival="173.00" arrivalPos="34.28" duration="125.00" routeLength="48.06" timeLoss="92.23" maxSpeed="1.47" waitingTime="88.40"/>
    </personinfo>
    <personinfo id="InasaltoPalengke.0" depart="0.00" type="ped" speedFactor="1.14" duration="174.00" waitingTime="139.50" timeLoss="143.55" traveltime="174.00">
        <walk depart="0.00" departPos="0.00" arrival="174.00" arrivalPos="34.28" duration="174.00" routeLength="48.06" timeLoss="143.55" maxSpeed="1.58" waitingTime="139.50"/>
    </personinfo>
    <personinfo id="InasaltoPalengke.2" depart="96.00" type="ped" speedFactor="0.88" duration="84.30" waitingTime="40.60" timeLoss="45.04" traveltime="84.30">
        <walk depart="96.00" departPos="0.00" arrival="180.30" arrivalPos="34.28" duration="84.30" routeLength="48.06" timeLoss="45.04" maxSpeed="1.22" waitingTime="40.60"/>
    </personinfo>
    <personinfo id="PalengketoInasal.1" depart="48.00" type="ped" speedFactor="1.10" duration="133.00" waitingTime="90.20" timeLoss="94.60" traveltime="133.00">
        <walk depart="48.00" departPos="0.00" arrival="181.00" arrivalPos="44.65" duration="133.00" routeLength="58.43" timeLoss="94.60" maxSpeed="1.52" waitingTime="90.20"/>
    </personinfo>
    <personinfo id="InasaltoSavemore.0" depart="0.00" type="ped" speedFactor="1.18" duration="181.40" waitingTime="138.40" timeLoss="143.19" traveltime="181.40">
        <walk depart="0.00" departPos="0.00" arrival="181.40" arrivalPos="44.65" duration="181.40" routeLength="62.53" timeLoss="143.19" maxSpeed="1.64" waitingTime="138.40"/>
    </personinfo>
    <personinfo id="PalengketoInasal.2" depart="96.00" type="ped" speedFactor="1.08" duration="86.10" waitingTime="42.90" timeLoss="47.14" traveltime="86.10">
        <walk depart="96.00" departPos="0.00" arrival="182.10" arrivalPos="44.65" duration="86.10" routeLength="58.43" timeLoss="47.14" maxSpeed="1.50" waitingTime="42.90"/>
    </personinfo>
    <personinfo id="InasaltoPalengke.3" depart="144.00" type="ped" speedFactor="1.03" duration="39.00" waitingTime="1.70" timeLoss="5.46" traveltime="39.00">
        <walk depart="144.00" departPos="0.00" arrival="183.00" arrivalPos="34.28" duration="39.00" routeLength="48.06" timeLoss="5.46" maxSpeed="1.43" waitingTime="1.70"/>
    </personinfo>
    <personinfo id="InasaltoSavemore.1" depart="48.00" type="ped" speedFactor="1.13" duration="135.80" waitingTime="90.90" timeLoss="95.82" traveltime="135.80">
        <walk depart="48.00" departPos="0.00" arrival="183.80" arrivalPos="44.65" duration="135.80" routeLength="62.53" timeLoss="95.82" maxSpeed="1.56" waitingTime="90.90"/>
    </personinfo>
    <personinfo id="InasaltoSavemore.2" depart="96.00" type="ped" speedFactor="1.02" duration="91.80" waitingTime="42.70" timeLoss="47.78" traveltime="91.80">
        <walk depart="96.00" departPos="0.00" arrival="187.80" arrivalPos="44.65" duration="91.80" routeLength="62.53" timeLoss="47.78" maxSpeed="1.42" waitingTime="42.70"/>
    </personinfo>
    <personinfo id="SavemoretoInasal.1" depart="48.00" type="ped" speedFactor="1.00" duration="139.90" waitingTime="19.00" timeLoss="95.08" traveltime="139.90">
        <walk depart="48.00" departPos="0.00" arrival="187.90" arrivalPos="44.65" duration="139.90" routeLength="62.53" timeLoss="95.08" maxSpeed="1.40" waitingTime="19.00"/>
    </personinfo>
    <personinfo id="PalengketoSavemore.1" depart="48.00" type="ped" speedFactor="1.24" duration="142.50" waitingTime="91.60" timeLoss="100.35" traveltime="142.50">
        <walk depart="48.00" departPos="0.00" arrival="190.50" arrivalPos="44.65" duration="142.50" routeLength="72.73" timeLoss="100.35" maxSpeed="1.73" waitingTime="91.60"/>
    </personinfo>
    <personinfo id="JeepPilatoSavemore.0" depart="0.00" type="ped" speedFactor="1.07" duration="190.50" waitingTime="137.50" timeLoss="142.87" traveltime="190.50">
        <walk depart="0.00" departPos="0.00" arrival="190.50" arrivalPos="44.65" duration="190.50" routeLength="70.59" timeLoss="142.87" maxSpeed="1.48" waitingTime="137.50"/>
    </personinfo>
    <personinfo id="SavemoretoInasal.0" depart="0.00" type="ped" speedFactor="0.96" duration="191.20" waitingTime="65.10" timeLoss="144.45" traveltime="191.20">
        <walk depart="0.00" departPos="0.00" arrival="191.20" arrivalPos="44.65" duration="191.20" routeLength="62.53" timeLoss="144.45" maxSpeed="1.34" waitingTime="65.10"/>
    </personinfo>
    <tripinfo id="StaRosatoBanlic-Mamatid.0" depart="18.00" departLane="-549232953#10_1" departPos="5.10" departPosLat="0.00" departSpeed="30.31" departDelay="0.00" arrival="192.20" arrivalLane="-1346113028#0_1" arrivalPos="507.75" arrivalPosLat="0.00" arrivalSpeed="9.08" duration="174.20" routeLength="3135.81" waitingTime="0.00" waitingCount="0" stopTime="0.00" timeLoss="3.71" rerouteNo="1" devices="tripinfo_StaRosatoBanlic-Mamatid.0 routing_StaRosatoBanlic-Mamatid.0" vType="car" speedFactor="1.09" vaporized=""/>
    <personinfo id="PalengketoInasal.3" depart="144.00" type="ped" speedFactor="0.92" duration="50.50" waitingTime="0.00" timeLoss="4.93" traveltime="50.50">
        <walk depart="144.00" departPos="0.00" arrival="194.50" arrivalPos="44.65" duration="50.50" routeLength="58.43" timeLoss="4.93" maxSpeed="1.28" waitingTime="0.00"/>
    </personinfo>
    <personinfo id="PalengketoInasal.0" depart="0.00" type="ped" speedFactor="0.81" duration="195.50" waitingTime="137.90" timeLoss="143.65" traveltime="195.50">
        <walk depart="0.00" departPos="0.00" arrival="195.50" arrivalPos="44.65" duration="195.50" routeLength="58.43" timeLoss="143.65" maxSpeed="1.13" waitingTime="137.90"/>
    </personinfo>
    <personinfo id="JeepPilatoSavemore.2" depart="96.00" type="ped" speedFactor="0.98" duration="100.00" waitingTime="41.80" timeLoss="47.88" traveltime="100.00">
        <walk depart="96.00" departPos="0.00" arrival="196.00" arrivalPos="44.65" duration="100.00" routeLength="70.59" timeLoss="47.88" maxSpeed="1.35" waitingTime="41.80"/>
    </personinfo>
    <personinfo id="InasaltoSavemore.3" depart="144.00" type="ped" speedFactor="0.99" duration="52.40" waitingTime="1.80" timeLoss="7.06" traveltime="52.40">
        <walk depart="144.00" departPos="0.00" arrival="196.40" arrivalPos="44.65" duration="52.40" routeLength="62.53" timeLoss="7.06" maxSpeed="1.38" waitingTime="1.80"/>
    </personinfo>
    <tripinfo id="CalambatoNeighborhood.1" depart="87.10" departLane="32425220#0_2" departPos="7.20" departPosLat="0.00" departSpeed="28.43" departDelay="0.00" arrival="196.90" arrivalLane="32425190#1_1" arrivalPos="142.43" arrivalPosLat="0.00" arrivalSpeed="14.18" duration="109.80" routeLength="1067.95" waitingTime="46.80" waitingCount="1" stopTime="0.00" timeLoss="64.14" rerouteNo="1" devices="tripinfo_CalambatoNeighborhood.1 routing_CalambatoNeighborhood.1" vType="truck" speedFactor="1.02" vaporized=""/>
    <personinfo id="JeepPilatoSavemore.1" depart="48.00" type="ped" speedFactor="0.89" duration="152.80" waitingTime="89.20" timeLoss="95.65" traveltime="152.80">
        <walk depart="48.00" departPos="0.00" arrival="200.80" arrivalPos="44.65" duration="152.80" routeLength="70.59" timeLoss="95.65" maxSpeed="1.24" waitingTime="89.20"/>
    </personinfo>
    <personinfo id="PalengketoSavemore.0" depart="0.00" type="ped" speedFactor="0.97" duration="201.20" waitingTime="138.70" timeLoss="147.16" traveltime="201.20">
        <walk depart="0.00" departPos="0.00" arrival="201.20" arrivalPos="44.65" duration="201.20" routeLength="72.73" timeLoss="147.16" maxSpeed="1.35" waitingTime="138.70"/>
    </personinfo>
    <personinfo id="PalengketoSavemore.2" depart="96.00" type="ped" speedFactor="1.11" duration="105.50" waitingTime="45.80" timeLoss="58.31" traveltime="105.50">
        <walk depart="96.00" departPos="0.00" arrival="201.50" arrivalPos="44.65" duration="105.50" routeLength="72.73" timeLoss="58.31" maxSpeed="1.54" waitingTime="45.80"/>
    </personinfo>
    <personinfo id="JeepPilatoSavemore.3" depart="144.00" type="ped" speedFactor="0.99" duration="59.20" waitingTime="2.10" timeLoss="7.64" traveltime="59.20">
        <walk depart="144.00" departPos="0.00" arrival="203.20" arrivalPos="44.65" duration="59.20" routeLength="70.59" timeLoss="7.64" maxSpeed="1.37" waitingTime="2.10"/>
    </personinfo>
    <tripinfo id="Banlic-MamatidtoCalamba.0" depart="13.90" departLane="1346113028#0_1" departPos="2.30" departPosLat="0.00" departSpeed="8.78" departDelay="0.00" arrival="225.90" arrivalLane="-32425220#0_1" arrivalPos="290.87" arrivalPosLat="0.00" arrivalSpeed="29.44" duration="212.00" routeLength="1745.33" waitingTime="51.10" waitingCount="1" stopTime="0.00" timeLoss="83.89" rerouteNo="1" devices="tripinfo_Banlic-MamatidtoCalamba.0 routing_Banlic-MamatidtoCalamba.0" vType="tricycle" speedFactor="1.06" vaporized=""/>
    <tripinfo id="Banlic-MamatidtoStaRosa.0" depart="11.80" departLane="1346113028#0_1" departPos="5.10" departPosLat="0.00" departSpeed="7.11" departDelay="0.00" arrival="233.10" arrivalLane="549232953#10_1" arrivalPos="967.06" arrivalPosLat="-0.00" arrivalSpeed="23.60" duration="221.30" routeLength="3125.43" waitingTime="0.00" waitingCount="0" stopTime="0.00" timeLoss="4.85" rerouteNo="1" devices="tripinfo_Banlic-MamatidtoStaRosa.0 routing_Banlic-MamatidtoStaRosa.0" vType="car" speedFactor="0.85" vaporized=""/>
    <tripinfo id="Banlic-MamatidtoCalamba.1" depart="62.00" departLane="1346113028#0_1" departPos="8.10" departPosLat="0.00" departSpeed="8.33" departDelay="0.00" arrival="235.90" arrivalLane="-32425220#0_1" arrivalPos="290.87" arrivalPosLat="0.00" arrivalSpeed="27.73" duration="173.90" routeLength="1739.53" waitingTime="21.60" waitingCount="1" stopTime="0.00" timeLoss="38.77" rerouteNo="1" devices="tripinfo_Banlic-MamatidtoCalamba.1 routing_Banlic-MamatidtoCalamba.1" vType="jeep" speedFactor="1.00" vaporized=""/>
    <tripinfo id="StaRosatoNeighborhood.1" depart="61.00" departLane="-549232953#10_1" departPos="2.30" departPosLat="0.00" departSpeed="31.90" departDelay="0.00" arrival="244.60" arrivalLane="32425190#1_1" arrivalPos="142.43" arrivalPosLat="0.00" arrivalSpeed="15.89" duration="183.60" routeLength="2478.32" waitingTime="57.40" waitingCount="1" stopTime="0.00" timeLoss="99.00" rerouteNo="1" devices="tripinfo_StaRosatoNeighborhood.1 routing_StaRosatoNeighborhood.1" vType="tricycle" speedFactor="1.15" vaporized=""/>
    <tripinfo id="CalambatoStaRosa.3" depart="26.60" departLane="32425220#0_1" departPos="5.10" departPosLat="0.00" departSpeed="27.38" departDelay="0.00" arrival="245.60" arrivalLane="549232953#10_1" arrivalPos="967.06" arrivalPosLat="0.00" arrivalSpeed="27.36" duration="219.00" routeLength="3155.57" waitingTime="93.70" waitingCount="1" stopTime="0.00" timeLoss="103.73" rerouteNo="1" devices="tripinfo_CalambatoStaRosa.3 routing_CalambatoStaRosa.3" vType="car" speedFactor="0.99" vaporized=""/>
    <tripinfo id="CalambatoStaRosa.6" depart="35.30" departLane="32425220#0_2" departPos="5.10" departPosLat="0.00" departSpeed="27.76" departDelay="0.00" arrival="246.90" arrivalLane="549232953#10_1" arrivalPos="967.06" arrivalPosLat="-0.00" arrivalSpeed="27.70" duration="211.60" routeLength="3155.57" waitingTime="80.10" waitingCount="1" stopTime="0.00" timeLoss="97.89" rerouteNo="1" devices="tripinfo_CalambatoStaRosa.6 routing_CalambatoStaRosa.6" vType="car" speedFactor="1.00" vaporized=""/>
    <tripinfo id="CalambatoStaRosa.10" depart="57.10" departLane="32425220#0_1" departPos="5.10" departPosLat="0.00" departSpeed="29.83" departDelay="0.00" arrival="249.90" arrivalLane="549232953#10_2" arrivalPos="967.06" arrivalPosLat="0.00" arrivalSpeed="29.80" duration="192.80" routeLength="3155.57" waitingTime="63.80" waitingCount="3" stopTime="0.00" timeLoss="87.16" rerouteNo="1" devices="tripinfo_CalambatoStaRosa.10 routing_CalambatoStaRosa.10" vType="car" speedFactor="1.08" vaporized=""/>
    <tripinfo id="StaRosatoNeighborhood.2" depart="127.10" departLane="-549232953#10_2" departPos="2.30" departPosLat="0.00" departSpeed="28.12" departDelay="0.00" arrival="251.70" arrivalLane="32425190#1_1" arrivalPos="142.43" arrivalPosLat="-0.00" arrivalSpeed="14.06" duration="124.60" routeLength="2478.32" waitingTime="8.90" waitingCount="1" stopTime="0.00" timeLoss="28.74" rerouteNo="1" devices="tripinfo_StaRosatoNeighborhood.2 routing_StaRosatoNeighborhood.2" vType="tricycle" speedFactor="1.01" vaporized=""/>
    <tripinfo id="CalambatoStaRosa.4" depart="30.30" departLane="32425220#0_2" departPos="7.20" departPosLat="0.00" departSpeed="27.43" departDelay="0.00" arrival="252.40" arrivalLane="549232953#10_1" arrivalPos="967.06" arrivalPosLat="-0.00" arrivalSpeed="27.39" duration="222.10" routeLength="3153.47" waitingTime="82.80" waitingCount="1" stopTime="0.00" timeLoss="107.13" rerouteNo="1" devices="tripinfo_CalambatoStaRosa.4 routing_CalambatoStaRosa.4" vType="truck" speedFactor="0.99" vaporized=""/>
    <tripinfo id="Banlic-MamatidtoCalamba.2" depart="113.40" departLane="1346113028#0_1" departPos="5.10" departPosLat="0.00" departSpeed="8.36" departDelay="0.00" arrival="252.50" arrivalLane="-32425220#0_1" arrivalPos="290.87" arrivalPosLat="0.00" arrivalSpeed="27.80" duration="139.10" routeLength="1742.53" waitingTime="0.00" waitingCount="0" stopTime="0.00" timeLoss="4.11" rerouteNo="1" devices="tripinfo_Banlic-MamatidtoCalamba.2 routing_Banlic-MamatidtoCalamba.2" vType="car" speedFactor="1.00" vaporized=""/>
    <tripinfo id="NeighborhoodtoStaRosa.1" depart="74.50" departLane="-32425190#1_1" departPos="12.10" departPosLat="0.00" departSpeed="13.89" departDelay="0.00" arrival="254.70" arrivalLane="549232953#10_1" arrivalPos="967.06" arrivalPosLat="0.00" arrivalSpeed="27.77" duration="180.20" routeLength="2476.86" waitingTime="63.60" waitingCount="1" stopTime="0.00" timeLoss="83.17" rerouteNo="1" devices="tripinfo_NeighborhoodtoStaRosa.1 routing_NeighborhoodtoStaRosa.1" vType="bus" speedFactor="1.00" vaporized=""/>
    <tripinfo id="CalambatoStaRosa.8" depart="39.60" departLane="32425220#0_2" departPos="2.30" departPosLat="0.00" departSpeed="29.02" departDelay="0.00" arrival="258.70" arrivalLane="549232953#10_1" arrivalPos="967.06" arrivalPosLat="-0.00" arrivalSpeed="29.00" duration="219.10" routeLength="3158.37" waitingTime="79.50" waitingCount="24" stopTime="0.00" timeLoss="110.23" rerouteNo="1" devices="tripinfo_CalambatoStaRosa.8 routing_CalambatoStaRosa.8" vType="motorcycle" speedFactor="1.04" vaporized=""/>
    <tripinfo id="StaRosatoCalamba.7" depart="44.80" departLane="-549232953#10_1" departPos="5.10" departPosLat="0.00" departSpeed="24.74" departDelay="0.00" arrival="263.10" arrivalLane="-32425220#0_1" arrivalPos="290.87" arrivalPosLat="0.00" arrivalSpeed="24.66" duration="218.30" routeLength="3152.27" waitingTime="71.80" waitingCount="3" stopTime="0.00" timeLoss="90.83" rerouteNo="1" devices="tripinfo_StaRosatoCalamba.7 routing_StaRosatoCalamba.7" vType="car" speedFactor="0.89" vaporized=""/>
    <tripinfo id="StaRosatoCalamba.10" depart="48.40" departLane="-549232953#10_2" departPos="2.30" departPosLat="0.00" departSpeed="27.86" departDelay="0.00" arrival="264.30" arrivalLane="-32425220#0_1" arrivalPos="290.87" arrivalPosLat="0.00" arrivalSpeed="26.29" duration="215.90" routeLength="3155.07" waitingTime="63.10" waitingCount="2" stopTime="0.00" timeLoss="102.65" rerouteNo="1" devices="tripinfo_StaRosatoCalamba.10 routing_StaRosatoCalamba.10" vType="tricycle" speedFactor="1.00" vaporized=""/>
    <tripinfo id="CalambatoStaRosa.5" depart="34.40" departLane="32425220#0_1" departPos="5.10" departPosLat="0.00" departSpeed="24.89" departDelay="0.00" arrival="264.70" arrivalLane="549232953#10_1" arrivalPos="967.06" arrivalPosLat="0.00" arrivalSpeed="24.82" duration="230.30" routeLength="3155.57" waitingTime="86.10" waitingCount="2" stopTime="0.00" timeLoss="103.44" rerouteNo="1" devices="tripinfo_CalambatoStaRosa.5 routing_CalambatoStaRosa.5" vType="car" speedFactor="0.90" vaporized=""/>
    <tripinfo id="CalambatoStaRosa.7" depart="38.20" departLane="32425220#0_1" departPos="5.10" departPosLat="0.00" departSpeed="26.74" departDelay="0.00" arrival="264.70" arrivalLane="549232953#10_2" arrivalPos="967.06" arrivalPosLat="0.00" arrivalSpeed="26.72" duration="226.50" routeLength="3155.57" waitingTime="82.40" waitingCount="2" stopTime="0.00" timeLoss="108.42" rerouteNo="1" devices="tripinfo_CalambatoStaRosa.7 routing_CalambatoStaRosa.7" vType="car" speedFactor="0.96" vaporized=""/>
    <tripinfo id="StaRosatoCalamba.8" depart="46.60" departLane="-549232953#10_2" departPos="5.10" departPosLat="0.00" departSpeed="25.03" departDelay="0.00" arrival="264.70" arrivalLane="-32425220#0_2" arrivalPos="290.87" arrivalPosLat="-0.10" arrivalSpeed="24.93" duration="218.10" routeLength="3152.27" waitingTime="61.90" waitingCount="1" stopTime="0.00" timeLoss="92.11" rerouteNo="1" devices="tripinfo_StaRosatoCalamba.8 routing_StaRosatoCalamba.8" vType="car" speedFactor="0.90" vaporized=""/>
    <tripinfo id="StaRosatoCalamba.12" depart="54.10" departLane="-549232953#10_2" departPos="5.10" departPosLat="0.00" departSpeed="27.92" departDelay="0.00" arrival="265.90" arrivalLane="-32425220#0_2" arrivalPos="290.87" arrivalPosLat="0.00" arrivalSpeed="27.26" duration="211.80" routeLength="3152.27" waitingTime="59.80" waitingCount="1" stopTime="0.00" timeLoss="98.89" rerouteNo="1" devices="tripinfo_StaRosatoCalamba.12 routing_StaRosatoCalamba.12" vType="car" speedFactor="1.01" vaporized=""/>
    <tripinfo id="StaRosatoCalamba.11" depart="53.80" departLane="-549232953#10_1" departPos="5.10" departPosLat="0.00" departSpeed="27.72" departDelay="0.00" arrival="267.10" arrivalLane="-32425220#0_1" arrivalPos="290.87" arrivalPosLat="-0.00" arrivalSpeed="27.63" duration="213.30" routeLength="3152.27" waitingTime="58.50" waitingCount="2" stopTime="0.00" timeLoss="99.50" rerouteNo="1" devices="tripinfo_StaRosatoCalamba.11 routing_StaRosatoCalamba.11" vType="car" speedFactor="1.00" vaporized=""/>
    <tripinfo id="StaRosatoCalamba.14" depart="69.40" departLane="-549232953#10_1" departPos="2.30" departPosLat="0.00" departSpeed="28.64" departDelay="0.00" arrival="267.10" arrivalLane="-32425220#0_2" arrivalPos="290.87" arrivalPosLat="0.00" arrivalSpeed="28.49" duration="197.70" routeLength="3155.07" waitingTime="58.50" waitingCount="1" stopTime="0.00" timeLoss="87.51" rerouteNo="1" devices="tripinfo_StaRosatoCalamba.14 routing_StaRosatoCalamba.14" vType="tricycle" speedFactor="1.03" vaporized=""/>
    <tripinfo id="CalambatoStaRosa.9" depart="56.20" departLane="32425220#0_2" departPos="2.30" departPosLat="0.00" departSpeed="24.26" departDelay="0.00" arrival="267.70" arrivalLane="549232953#10_1" arrivalPos="967.06" arrivalPosLat="-0.00" arrivalSpeed="24.20" duration="211.50" routeLength="3158.37" waitingTime="57.80" waitingCount="1" stopTime="0.00" timeLoss="81.28" rerouteNo="1" devices="tripinfo_CalambatoStaRosa.9 routing_CalambatoStaRosa.9" vType="motorcycle" speedFactor="0.87" vaporized=""/>
    <tripinfo id="StaRosatoCalamba.15" depart="81.40" departLane="-549232953#10_2" departPos="2.30" departPosLat="0.00" departSpeed="27.27" departDelay="0.00" arrival="268.00" arrivalLane="-32425220#0_2" arrivalPos="290.87" arrivalPosLat="-1.57" arrivalSpeed="27.24" duration="186.60" routeLength="3155.07" waitingTime="53.40" waitingCount="1" stopTime="0.00" timeLoss="70.84" rerouteNo="1" devices="tripinfo_StaRosatoCalamba.15 routing_StaRosatoCalamba.15" vType="motorcycle" speedFactor="0.98" vaporized=""/>
    <tripinfo id="StaRosatoCalamba.16" depart="95.70" departLane="-549232953#10_2" departPos="2.30" departPosLat="0.00" departSpeed="29.89" departDelay="0.00" arrival="268.20" arrivalLane="-32425220#0_2" arrivalPos="290.87" arrivalPosLat="0.00" arrivalSpeed="29.73" duration="172.50" routeLength="3155.07" waitingTime="47.10" waitingCount="1" stopTime="0.00" timeLoss="66.95" rerouteNo="1" devices="tripinfo_StaRosatoCalamba.16 routing_StaRosatoCalamba.16" vType="tricycle" speedFactor="1.08" vaporized=""/>