<?xml version="1.0" encoding="UTF-8"?>

<!-- generated on 2026-02-24 12:59:20 by Eclipse SUMO sumo Version 1.24.0
<sumoConfiguration xmlns:xsi="http://www.w3.org/2001/XMLSchema-instance" xsi:noNamespaceSchemaLocation="http://sumo.dlr.de/xsd/sumoConfiguration.xsd">

    <input>
        <net-file value="Banlic-Mamatid_traci/network/banlic-mamatid_signalized.net.xml"/>
        <route-files value="Banlic-Mamatid_traci/demand/flows_normal_traffic.rou.xml"/>
        <additional-files value="Banlic-Mamatid_traci/additionals/banlic-mamatid.poly.xml,Banlic-Mamatid_traci/ additionals/banlic-mamatid.add.xml"/>
    </input>

    <output>
        <tripinfo-output value="Banlic-Mamatid_traci/output_A2C/test_normal_traffic_trips.xml"/>
        <statistic-output value="Banlic-Mamatid_traci/output_A2C/test_normal_traffic_stats.xml"/>
    </output>

    <time>
        <begin value="0"/>
        <end value="10800"/>
        <step-length value="0.1"/>
    </time>

    <processing>
        <lateral-resolution value="0.1"/>
        <collision.action value="none"/>
        <collision.check-junctions value="false"/>
        <collision.mingap-factor value="0"/>
    </processing>

    <report>
        <no-warnings value="true"/>
    </report>

    <traci_server>
        <remote-port value="8814"/>
    </traci_server>

    <gui_only>
        <delay value="0"/>
    </gui_only>

</sumoConfiguration>
-->

<tripinfos xmlns:xsi="http://www.w3.org/2001/XMLSchema-instance" xsi:noNamespaceSchemaLocation="http://sumo.dlr.de/xsd/tripinfo_file.xsd">
    <tripinfo id="NeighborhoodtoCalamba.0" depart="15.30" departLane="-32425190#1_1" departPos="12.10" departPosLat="0.00" departSpeed="13.89" departDelay="0.00" arrival="70.00" arrivalLane="-32425220#0_2" arrivalPos="290.87" arrivalPosLat="0.00" arrivalSpeed="27.72" duration="54.70" routeLength="1049.50" waitingTime="0.00" waitingCount="0" stopTime="0.00" timeLoss="9.45" rerouteNo="1" devices="tripinfo_NeighborhoodtoCalamba.0 routing_NeighborhoodtoCalamba.0" vType="bus" speedFactor="1.00" vaporized=""/>
    <tripinfo id="StaRosatoCalamba.0" depart="8.90" departLane="-549232953#10_1" departPos="8.10" departPosLat="0.00" departSpeed="27.78" departDelay="0.00" arrival="126.30" arrivalLane="-32425220#0_1" arrivalPos="290.87" arrivalPosLat="0.00" arrivalSpeed="27.76" duration="117.40" routeLength="3149.27" waitingTime="0.00" waitingCount="0" stopTime="0.00" timeLoss="3.95" rerouteNo="1" devices="tripinfo_StaRosatoCalamba.0 routing_StaRosatoCalamba.0" vType="jeep" speedFactor="1.00" vaporized=""/>
    <tripinfo id="StaRosatoCalamba.1" depart="16.40" departLane="-549232953#10_2" departPos="7.20" departPosLat="0.00" departSpeed="27.60" departDelay="0.00" arrival="130.70" arrivalLane="-32425220#0_1" arrivalPos="290.87" arrivalPosLat="-0.00" arrivalSpeed="27.60" duration="114.30" routeLength="3150.17" waitingTime="0.00" waitingCount="0" stopTime="0.00" timeLoss="0.14" rerouteNo="1" devices="tripinfo_StaRosatoCalamba.1 routing_StaRosatoCalamba.1" vType="truck" speedFactor="0.99" vaporized=""/>
    <tripinfo id="StaRosatoCalamba.2" depart="41.40" departLane="-549232953#10_2" departPos="7.20" departPosLat="0.00" departSpeed="28.37" departDelay="0.00" arrival="152.60" arrivalLane="-32425220#0_1" arrivalPos="290.87" arrivalPosLat="-0.00" arrivalSpeed="28.35" duration="111.20" routeLength="3150.17" waitingTime="0.00" waitingCount="0" stopTime="0.00" timeLoss="0.13" rerouteNo="1" devices="tripinfo_StaRosatoCalamba.2 routing_StaRosatoCalamba.2" vType="truck" speedFactor="1.02" vaporized=""/>
    <personinfo id="PalengketoJeepPila.0" depart="0.00" type="ped" speedFactor="1.06" duration="171.30" waitingTime="126.70" timeLoss="131.53" traveltime="171.30">
        <walk depart="0.00" departPos="0.00" arrival="171.30" arrivalPos="25.71" duration="171.30" routeLength="58.82" timeLoss="131.53" maxSpeed="1.48" waitingTime="126.70"/>
    </personinfo>
    <personinfo id="SavemoretoJeepPila.0" depart="0.00" type="ped" speedFactor="0.87" duration="173.40" waitingTime="44.10" timeLoss="57.11" traveltime="173.40">
        <walk depart="0.00" departPos="0.00" arrival="173.40" arrivalPos="25.71" duration="173.40" routeLength="140.94" timeLoss="57.11" maxSpeed="1.21" waitingTime="44.10"/>
    </personinfo>
    <personinfo id="InasaltoPalengke.0" depart="0.00" type="ped" speedFactor="0.93" duration="177.40" waitingTime="135.90" timeLoss="140.27" traveltime="177.40">
        <walk depart="0.00" departPos="0.00" arrival="177.40" arrivalPos="34.28" duration="177.40" routeLength="48.06" timeLoss="140.27" maxSpeed="1.29" waitingTime="135.90"/>
    </personinfo>
    <personinfo id="PalengketoInasal.0" depart="0.00" type="ped" speedFactor="1.15" duration="179.10" waitingTime="138.60" timeLoss="142.61" traveltime="179.10">
        <walk depart="0.00" departPos="0.00" arrival="179.10" arrivalPos="44.65" duration="179.10" routeLength="58.43" timeLoss="142.61" maxSpeed="1.60" waitingTime="138.60"/>
    </personinfo>
    <personinfo id="InasaltoPalengke.1" depart="144.00" type="ped" speedFactor="0.88" duration="44.60" waitingTime="0.90" timeLoss="5.18" traveltime="44.60">
        <walk depart="144.00" departPos="0.00" arrival="188.60" arrivalPos="34.28" duration="44.60" routeLength="48.06" timeLoss="5.18" maxSpeed="1.22" waitingTime="0.90"/>
    </personinfo>
    <personinfo id="PalengketoInasal.1" depart="144.00" type="ped" speedFactor="1.03" duration="45.10" waitingTime="0.00" timeLoss="4.35" traveltime="45.10">
        <walk depart="144.00" departPos="0.00" arrival="189.10" arrivalPos="44.65" duration="45.10" routeLength="58.43" timeLoss="4.35" maxSpeed="1.43" waitingTime="0.00"/>
    </personinfo>
    <personinfo id="InasaltoSavemore.1" depart="144.00" type="ped" speedFactor="1.24" duration="45.70" waitingTime="1.10" timeLoss="9.46" traveltime="45.70">
        <walk depart="144.00" departPos="0.00" arrival="189.70" arrivalPos="44.65" duration="45.70" routeLength="62.53" timeLoss="9.46" maxSpeed="1.73" waitingTime="1.10"/>
    </personinfo>
    <personinfo id="InasaltoSavemore.0" depart="0.00" type="ped" speedFactor="0.97" duration="189.80" waitingTime="138.00" timeLoss="143.34" traveltime="189.80">
        <walk depart="0.00" departPos="0.00" arrival="189.80" arrivalPos="44.65" duration="189.80" routeLength="62.53" timeLoss="143.34" maxSpeed="1.35" waitingTime="138.00"/>
    </personinfo>
    <personinfo id="JeepPilatoPalengke.1" depart="144.00" type="ped" speedFactor="1.09" duration="51.00" waitingTime="1.40" timeLoss="6.47" traveltime="51.00">
        <walk depart="144.00" departPos="0.00" arrival="195.00" arrivalPos="34.28" duration="51.00" routeLength="67.39" timeLoss="6.47" maxSpeed="1.51" waitingTime="1.40"/>
    </personinfo>
    <personinfo id="JeepPilatoSavemore.0" depart="0.00" type="ped" speedFactor="0.96" duration="195.90" waitingTime="136.90" timeLoss="143.13" traveltime="195.90">
        <walk depart="0.00" departPos="0.00" arrival="195.90" arrivalPos="44.65" duration="195.90" routeLength="70.59" timeLoss="143.13" maxSpeed="1.34" waitingTime="136.90"/>
    </personinfo>
    <personinfo id="JeepPilatoPalengke.0" depart="0.00" type="ped" speedFactor="0.92" duration="197.30" waitingTime="138.60" timeLoss="144.52" traveltime="197.30">
        <walk depart="0.00" departPos="0.00" arrival="197.30" arrivalPos="34.28" duration="197.30" routeLength="67.39" timeLoss="144.52" maxSpeed="1.28" waitingTime="138.60"/>
    </personinfo>
    <personinfo id="SavemoretoInasal.0" depart="0.00" type="ped" speedFactor="0.85" duration="197.40" waitingTime="55.50" timeLoss="144.74" traveltime="197.40">
        <walk depart="0.00" departPos="0.00" arrival="197.40" arrivalPos="44.65" duration="197.40" routeLength="62.53" timeLoss="144.74" maxSpeed="1.19" waitingTime="55.50"/>
    </personinfo>
    <personinfo id="PalengketoSavemore.0" depart="0.00" type="ped" speedFactor="0.98" duration="198.00" waitingTime="138.80" timeLoss="144.83" traveltime="198.00">
        <walk depart="0.00" departPos="0.00" arrival="198.00" arrivalPos="44.65" duration="198.00" routeLength="72.73" timeLoss="144.83" maxSpeed="1.37" waitingTime="138.80"/>
    </personinfo>
    <personinfo id="JeepPilatoSavemore.1" depart="144.00" type="ped" speedFactor="1.00" duration="60.20" waitingTime="3.50" timeLoss="9.61" traveltime="60.20">
        <walk depart="144.00" departPos="0.00" arrival="204.20" arrivalPos="44.65" duration="60.20" routeLength="70.59" timeLoss="9.61" maxSpeed="1.40" waitingTime="3.50"/>
    </personinfo>
    <tripinfo id="StaRosatoCalamba.4" depart="54.10" departLane="-549232953#10_2" departPos="2.30" departPosLat="0.00" departSpeed="31.64" departDelay="0.00" arrival="224.10" arrivalLane="-32425220#0_1" arrivalPos="290.87" arrivalPosLat="-0.00" arrivalSpeed="31.54" duration="170.00" routeLength="3155.07" waitingTime="42.40" waitingCount="3" stopTime="0.00" timeLoss="70.25" rerouteNo="1" devices="tripinfo_StaRosatoCalamba.4 routing_StaRosatoCalamba.4" vType="tricycle" speedFactor="1.14" vaporized=""/>
    <tripinfo id="Banlic-MamatidtoCalamba.0" depart="13.90" departLane="1346113028#0_1" departPos="5.10" departPosLat="0.00" departSpeed="7.97" departDelay="0.00" arrival="229.80" arrivalLane="-32425220#0_1" arrivalPos="290.87" arrivalPosLat="0.00" arrivalSpeed="26.48" duration="215.90" routeLength="1742.53" waitingTime="63.70" waitingCount="1" stopTime="0.00" timeLoss="74.22" rerouteNo="1" devices="tripinfo_Banlic-MamatidtoCalamba.0 routing_Banlic-MamatidtoCalamba.0" vType="car" speedFactor="0.96" vaporized=""/>
    <tripinfo id="Banlic-MamatidtoCalamba.1" depart="62.00" departLane="1346113028#0_1" departPos="7.20" departPosLat="0.00" departSpeed="8.23" departDelay="0.00" arrival="233.00" arrivalLane="-32425220#0_2" arrivalPos="290.87" arrivalPosLat="0.00" arrivalSpeed="27.42" duration="171.00" routeLength="1740.43" waitingTime="17.70" waitingCount="1" stopTime="0.00" timeLoss="34.09" rerouteNo="1" devices="tripinfo_Banlic-MamatidtoCalamba.1 routing_Banlic-MamatidtoCalamba.1" vType="truck" speedFactor="0.99" vaporized=""/>
    <tripinfo id="NeighborhoodtoStaRosa.0" depart="92.30" departLane="-32425190#1_1" departPos="5.10" departPosLat="0.00" departSpeed="14.95" departDelay="0.00" arrival="241.50" arrivalLane="549232953#10_1" arrivalPos="967.06" arrivalPosLat="-0.00" arrivalSpeed="29.79" duration="149.20" routeLength="2483.86" waitingTime="49.10" waitingCount="1" stopTime="0.00" timeLoss="58.56" rerouteNo="1" devices="tripinfo_NeighborhoodtoStaRosa.0 routing_NeighborhoodtoStaRosa.0" vType="car" speedFactor="1.08" vaporized=""/>
    <tripinfo id="Banlic-MamatidtoCalamba.2" depart="113.40" departLane="1346113028#0_1" departPos="8.10" departPosLat="0.00" departSpeed="8.33" departDelay="0.00" arrival="256.20" arrivalLane="-32425220#0_1" arrivalPos="290.87" arrivalPosLat="0.00" arrivalSpeed="27.77" duration="142.80" routeLength="1739.53" waitingTime="0.00" waitingCount="0" stopTime="0.00" timeLoss="7.64" rerouteNo="1" devices="tripinfo_Banlic-MamatidtoCalamba.2 routing_Banlic-MamatidtoCalamba.2" vType="jeep" speedFactor="1.00" vaporized=""/>
    <tripinfo id="StaRosatoCalamba.6" depart="129.90" departLane="-549232953#10_2" departPos="2.30" departPosLat="0.00" departSpeed="27.90" departDelay="0.00" arrival="257.50" arrivalLane="-32425220#0_1" arrivalPos="290.87" arrivalPosLat="-0.00" arrivalSpeed="27.74" duration="127.60" routeLength="3155.07" waitingTime="7.10" waitingCount="1" stopTime="0.00" timeLoss="14.48" rerouteNo="1" devices="tripinfo_StaRosatoCalamba.6 routing_StaRosatoCalamba.6" vType="motorcycle" speedFactor="1.00" vaporized=""/>
    <tripinfo id="CalambatoStaRosa.0" depart="35.30" departLane="32425220#0_1" departPos="5.10" departPosLat="0.00" departSpeed="23.28" departDelay="0.00" arrival="259.40" arrivalLane="549232953#10_1" arrivalPos="967.06" arrivalPosLat="0.00" arrivalSpeed="23.15" duration="224.10" routeLength="3155.57" waitingTime="79.80" waitingCount="1" stopTime="0.00" timeLoss="88.49" rerouteNo="1" devices="tripinfo_CalambatoStaRosa.0 routing_CalambatoStaRosa.0" vType="car" speedFactor="0.84" vaporized=""/>
    <tripinfo id="StaRosatoCalamba.5" depart="125.80" departLane="-549232953#10_1" departPos="5.10" departPosLat="0.00" departSpeed="27.99" departDelay="0.00" arrival="259.70" arrivalLane="-32425220#0_1" arrivalPos="290.87" arrivalPosLat="0.41" arrivalSpeed="27.96" duration="133.90" routeLength="3152.27" waitingTime="10.10" waitingCount="1" stopTime="0.00" timeLoss="21.21" rerouteNo="1" devices="tripinfo_StaRosatoCalamba.5 routing_StaRosatoCalamba.5" vType="car" speedFactor="1.01" vaporized=""/>
    <tripinfo id="CalambatoStaRosa.3" depart="82.10" departLane="32425220#0_1" departPos="7.20" departPosLat="0.00" departSpeed="27.35" departDelay="0.00" arrival="264.60" arrivalLane="549232953#10_1" arrivalPos="967.06" arrivalPosLat="0.15" arrivalSpeed="27.34" duration="182.50" routeLength="3153.47" waitingTime="43.20" waitingCount="1" stopTime="0.00" timeLoss="67.10" rerouteNo="1" devices="tripinfo_CalambatoStaRosa.3 routing_CalambatoStaRosa.3" vType="truck" speedFactor="0.98" vaporized=""/>
    <tripinfo id="CalambatoStaRosa.1" depart="57.10" departLane="32425220#0_2" departPos="7.20" departPosLat="0.00" departSpeed="26.46" departDelay="0.00" arrival="265.80" arrivalLane="549232953#10_1" arrivalPos="967.06" arrivalPosLat="0.28" arrivalSpeed="26.42" duration="208.70" routeLength="3153.47" waitingTime="70.60" waitingCount="1" stopTime="0.00" timeLoss="89.50" rerouteNo="1" devices="tripinfo_CalambatoStaRosa.1 routing_CalambatoStaRosa.1" vType="truck" speedFactor="0.95" vaporized=""/>
    <tripinfo id="CalambatoStaRosa.5" depart="131.40" departLane="32425220#0_2" departPos="5.10" departPosLat="0.00" departSpeed="27.91" departDelay="0.00" arrival="265.90" arrivalLane="549232953#10_2" arrivalPos="967.06" arrivalPosLat="0.00" arrivalSpeed="27.89" duration="134.50" routeLength="3155.57" waitingTime="0.00" waitingCount="0" stopTime="0.00" timeLoss="21.39" rerouteNo="1" devices="tripinfo_CalambatoStaRosa.5 routing_CalambatoStaRosa.5" vType="car" speedFactor="1.00" vaporized=""/>
    <tripinfo id="CalambatoStaRosa.7" depart="142.00" departLane="32425220#0_2" departPos="5.10" departPosLat="0.00" departSpeed="28.06" departDelay="0.00" arrival="267.10" arrivalLane="549232953#10_2" arrivalPos="967.06" arrivalPosLat="0.00" arrivalSpeed="27.98" duration="125.10" routeLength="3155.57" waitingTime="0.00" waitingCount="0" stopTime="0.00" timeLoss="12.64" rerouteNo="1" devices="tripinfo_CalambatoStaRosa.7 routing_CalambatoStaRosa.7" vType="car" speedFactor="1.01" vaporized=""/>
    <tripinfo id="CalambatoStaRosa.2" depart="63.70" departLane="32425220#0_1" departPos="7.20" departPosLat="0.00" departSpeed="26.35" departDelay="0.00" arrival="267.90" arrivalLane="549232953#10_1" arrivalPos="967.06" arrivalPosLat="-0.00" arrivalSpeed="26.34" duration="204.20" routeLength="3153.47" waitingTime="62.50" waitingCount="1" stopTime="0.00" timeLoss="84.51" rerouteNo="1" devices="tripinfo_CalambatoStaRosa.2 routing_CalambatoStaRosa.2" vType="truck" speedFactor="0.95" vaporized=""/>
    <tripinfo id="StaRosatoCalamba.3" depart="48.40" departLane="-549232953#10_1" departPos="8.10" departPosLat="0.00" departSpeed="27.78" departDelay="0.00" arrival="268.10" arrivalLane="-32425220#0_2" arrivalPos="290.87" arrivalPosLat="0.00" arrivalSpeed="27.77" duration="219.70" routeLength="3149.27" waitingTime="68.10" waitingCount="2" stopTime="0.00" timeLoss="106.28" rerouteNo="1" devices="tripinfo_StaRosatoCalamba.3 routing_StaRosatoCalamba.3" vType="jeep" speedFactor="1.00" vaporized=""/>
    <tripinfo id="CalambatoStaRosa.4" depart="125.70" departLane="32425220#0_1" departPos="8.10" departPosLat="0.00" departSpeed="27.78" departDelay="0.00" arrival="269.10" arrivalLane="549232953#10_2" arrivalPos="967.06" arrivalPosLat="0.00" arrivalSpeed="27.75" duration="143.40" routeLength="3152.57" waitingTime="2.90" waitingCount="1" stopTime="0.00" timeLoss="29.92" rerouteNo="1" devices="tripinfo_CalambatoStaRosa.4 routing_CalambatoStaRosa.4" vType="jeep" speedFactor="1.00" vaporized=""/>
    <tripinfo id="CalambatoStaRosa.6" depart="136.00" departLane="32425220#0_1" departPos="5.10" departPosLat="0.00" departSpeed="26.58" departDelay="0.00" arrival="270.70" arrivalLane="549232953#10_1" arrivalPos="967.06" arrivalPosLat="1.55" arrivalSpeed="26.50" duration="134.70" routeLength="3155.57" waitingTime="0.00" waitingCount="0" stopTime="0.00" timeLoss="15.94" rerouteNo="1" devices="tripinfo_CalambatoStaRosa.6 routing_CalambatoStaRosa.6" vType="car" speedFactor="0.96" vaporized=""/>
    <tripinfo id="CalambatoBanlic-Mamatid.0" depart="40.30" departLane="32425220#0_2" departPos="2.30" departPosLat="0.00" departSpeed="25.10" departDelay="0.00" arrival="275.80" arrivalLane="-1346113028#0_1" arrivalPos="507.75" arrivalPosLat="-0.00" arrivalSpeed="7.29" duration="235.50" routeLength="1740.27" waitingTime="74.80" waitingCount="1" stopTime="0.00" timeLoss="85.56" rerouteNo="1" devices="tripinfo_CalambatoBanlic-Mamatid.0 routing_CalambatoBanlic-Mamatid.0" vType="motorcycle" speedFactor="0.90" vaporized=""/>
    <tripinfo id="CalambatoBanlic-Mamatid.1" depart="54.60" departLane="32425220#0_1" departPos="8.10" departPosLat="0.00" departSpeed="27.78" departDelay="0.00" arrival="277.80" arrivalLane="-1346113028#0_1" arrivalPos="507.75" arrivalPosLat="0.00" arrivalSpeed="8.28" duration="223.20" routeLength="1734.47" waitingTime="76.10" waitingCount="1" stopTime="0.00" timeLoss="87.88" rerouteNo="1" devices="tripinfo_CalambatoBanlic-Mamatid.1 routing_CalambatoBanlic-Mamatid.1" vType="jeep" speedFactor="1.00" vaporized=""/>
    <tripinfo id="CalambatoBanlic-Mamatid.2" depart="136.50" departLane="32425220#0_1" departPos="8.10" departPosLat="0.00" departSpeed="21.74" departDelay="0.00" arrival="284.40" arrivalLane="-1346113028#0_1" arrivalPos="507.75" arrivalPosLat="-0.00" arrivalSpeed="8.32" duration="147.90" routeLength="1734.47" waitingTime="0.00" waitingCount="0" stopTime="0.00" timeLoss="12.57" rerouteNo="1" devices="tripinfo_CalambatoBanlic-Mamatid.2 routing_CalambatoBanlic-Mamatid.2" vType="jeep" speedFactor="1.00" vaporized=""/>
    <tripinfo id="Banlic-MamatidtoStaRosa.0" depart="75.60" departLane="1346113028#0_1" departPos="12.10" departPosLat="0.00" departSpeed="8.33" departDelay="0.00" arrival="284.90" arrivalLane="549232953#10_1" arrivalPos="967.06" arrivalPosLat="-0.00" arrivalSpeed="27.77" duration="209.30" routeLength="3118.43" waitingTime="7.50" waitingCount="1" stopTime="0.00" timeLoss="25.21" rerouteNo="1" devices="tripinfo_Banlic-MamatidtoStaRosa.0 routing_Banlic-MamatidtoStaRosa.0" vType="bus" speedFactor="1.00" vaporized=""/>
    <personinfo id="InasaltoJeepPila.0" depart="0.00" type="ped" speedFactor="0.97" duration="300.90" waitingTime="245.80" timeLoss="251.30" traveltime="300.90">
        <walk depart="0.00" departPos="0.00" arrival="300.90" arrivalPos="25.71" duration="300.90" routeLength="67.08" timeLoss="251.30" maxSpeed="1.35" waitingTime="245.80"/>
    </personinfo>
    <personinfo id="SavemoretoJeepPila.1" depart="144.00" type="ped" speedFactor="0.92" duration="159.00" waitingTime="36.10" timeLoss="48.36" traveltime="159.00">
        <walk depart="144.00" departPos="0.00" arrival="303.00" arrivalPos="25.71" duration="159.00" routeLength="140.94" timeLoss="48.36" maxSpeed="1.27" waitingTime="36.10"/>
    </personinfo>
    <personinfo id="SavemoretoPalengke.0" depart="0.00" type="ped" speedFactor="1.06" duration="303.70" waitingTime="172.60" timeLoss="200.69" traveltime="303.70">
        <walk depart="0.00" departPos="0.00" arrival="303.70" arrivalPos="34.28" duration="303.70" routeLength="151.65" timeLoss="200.69" maxSpeed="1.47" waitingTime="172.60"/>
    </personinfo>
    <personinfo id="InasaltoJeepPila.1" depart="144.00" type="ped" speedFactor="0.87" duration="160.80" waitingTime="98.80" timeLoss="105.36" traveltime="160.80">
        <walk depart="144.00" departPos="0.00" arrival="304.80" arrivalPos="25.71" duration="160.80" routeLength="67.08" timeLoss="105.36" maxSpeed="1.21" waitingTime="98.80"/>
    </personinfo>
    <personinfo id="PalengketoJeepPila.1" depart="144.00" type="ped" speedFactor="0.96" duration="161.10" waitingTime="112.00" timeLoss="116.83" traveltime="161.10">
        <walk depart="144.00" departPos="0.00" arrival="305.10" arrivalPos="25.71" duration="161.10" routeLength="58.82" timeLoss="116.83" maxSpeed="1.33" waitingTime="112.00"/>
    </personinfo>
    <personinfo id="SavemoretoInasal.1" depart="144.00" type="ped" speedFactor="1.17" duration="168.30" waitingTime="64.10" timeLoss="129.78" traveltime="168.30">
        <walk depart="144.00" departPos="0.00" arrival="312.30" arrivalPos="44.65" duration="168.30" routeLength="62.53" timeLoss="129.78" maxSpeed="1.62" waitingTime="64.10"/>
    </personinfo>
    <personinfo id="PalengketoSavemore.1" depart="144.00" type="ped" speedFactor="1.03" duration="173.40" waitingTime="117.10" timeLoss="122.68" traveltime="173.40">
        <walk depart="144.00" departPos="0.00" arrival="317.40" arrivalPos="44.65" duration="173.40" routeLength="72.73" timeLoss="122.68" maxSpeed="1.43" waitingTime="117.10"/>
    </personinfo>
    <tripinfo id="CalambatoNeighborhood.0" depart="156.50" departLane="32425220#0_1" departPos="12.10" departPosLat="0.00" departSpeed="27.78" departDelay="0.00" arrival="319.00" arrivalLane="32425190#1_1" arrivalPos="142.43" arrivalPosLat="0.00" arrivalSpeed="13.86" duration="162.50" routeLength="1063.05" waitingTime="105.60" waitingCount="1" stopTime="0.00" timeLoss="115.99" rerouteNo="1" devices="tripinfo_CalambatoNeighborhood.0 routing_CalambatoNeighborhood.0" vType="bus" speedFactor="1.00" vaporized=""/>
    <personinfo id="JeepPilatoInasal.0" depart="0.00" type="ped" speedFactor="0.95" duration="321.60" waitingTime="249.10" timeLoss="256.23" traveltime="321.60">
        <walk depart="0.00" departPos="0.00" arrival="321.60" arrivalPos="44.65" duration="321.60" routeLength="86.02" timeLoss="256.23" maxSpeed="1.32" waitingTime="249.10"/>
    </personinfo>
    <personinfo id="JeepPilatoInasal.1" depart="144.00" type="ped" speedFactor="0.87" duration="182.20" waitingTime="103.70" timeLoss="111.41" traveltime="182.20">
        <walk depart="144.00" departPos="0.00" arrival="326.20" arrivalPos="44.65" duration="182.20" routeLength="86.02" timeLoss="111.41" maxSpeed="1.22" waitingTime="103.70"/>
    </personinfo>
    <tripinfo id="NeighborhoodtoCalamba.1" depart="201.70" departLane="-32425190#1_1" departPos="12.10" departPosLat="0.00" departSpeed="13.89" departDelay="0.00" arrival="332.40" arrivalLane="-32425220#0_2" arrivalPos="290.87" arrivalPosLat="0.00" arrivalSpeed="27.76" duration="130.70" routeLength="1049.50" waitingTime="70.00" waitingCount="1" stopTime="0.00" timeLoss="85.38" rerouteNo="1" devices="tripinfo_NeighborhoodtoCalamba.1 routing_NeighborhoodtoCalamba.1" vType="bus" speedFactor="1.00" vaporized=""/>
    <tripinfo id="StaRosatoBanlic-Mamatid.0" depart="84.00" departLane="-549232953#10_1" departPos="8.10" departPosLat="0.00" departSpeed="27.78" departDelay="0.00" arrival="332.70" arrivalLane="-1346113028#0_1" arrivalPos="507.75" arrivalPosLat="0.00" arrivalSpeed="8.32" duration="248.70" routeLength="3132.81" waitingTime="48.50" waitingCount="1" stopTime="0.00" timeLoss="62.80" rerouteNo="1" devices="tripinfo_StaRosatoBanlic-Mamatid.0 routing_StaRosatoBanlic-Mamatid.0" vType="jeep" speedFactor="1.00" vaporized=""/>
    <tripinfo id="StaRosatoBanlic-Mamatid.1" depart="142.10" departLane="-549232953#10_1" departPos="2.30" departPosLat="0.00" departSpeed="27.09" departDelay="0.00" arrival="345.00" arrivalLane="-1346113028#0_1" arrivalPos="507.75" arrivalPosLat="0.00" arrivalSpeed="8.08" duration="202.90" routeLength="3138.61" waitingTime="0.80" waitingCount="1" stopTime="0.00" timeLoss="12.15" rerouteNo="1" devices="tripinfo_StaRosatoBanlic-Mamatid.1 routing_StaRosatoBanlic-Mamatid.1" vType="tricycle" speedFactor="0.98" vaporized=""/>
    <tripinfo id="StaRosatoBanlic-Mamatid.2" depart="157.90" departLane="-549232953#10_2" departPos="8.10" departPosLat="0.00" departSpeed="27.78" departDelay="0.00" arrival="347.40" arrivalLane="-1346113028#0_1" arrivalPos="507.75" arrivalPosLat="0.00" arrivalSpeed="8.32" duration="189.50" routeLength="3132.81" waitingTime="0.00" waitingCount="0" stopTime="0.00" timeLoss="3.65" rerouteNo="1" devices="tripinfo_StaRosatoBanlic-Mamatid.2 routing_StaRosatoBanlic-Mamatid.2" vType="jeep" speedFactor="1.00" vaporized=""/>
    <tripinfo id="Banlic-MamatidtoCalamba.4" depart="150.30" departLane="1346113028#0_1" departPos="5.10" departPosLat="0.00" departSpeed="7.79" departDelay="0.00" arrival="359.70" arrivalLane="-32425220#0_2" arrivalPos="290.87" arrivalPosLat="0.00" arrivalSpeed="25.95" duration="209.40" routeLength="1742.53" waitingTime="53.80" waitingCount="1" stopTime="0.00" timeLoss="64.40" rerouteNo="1" devices="tripinfo_Banlic-MamatidtoCalamba.4 routing_Banlic-MamatidtoCalamba.4" vType="car" speedFactor="0.93" vaporized=""/>
    <tripinfo id="Banlic-MamatidtoCalamba.3" depart="129.20" departLane="1346113028#0_1" departPos="5.10" departPosLat="0.00" departSpeed="7.12" departDelay="0.00" arrival="360.70" arrivalLane="-32425220#0_1" arrivalPos="290.87" arrivalPosLat="0.00" arrivalSpeed="23.73" duration="231.50" routeLength="1742.53" waitingTime="66.40" waitingCount="1" stopTime="0.00" timeLoss="72.90" rerouteNo="1" devices="tripinfo_Banlic-MamatidtoCalamba.3 routing_Banlic-MamatidtoCalamba.3" vType="car" speedFactor="0.85" vaporized=""/>
    <tripinfo id="StaRosatoNeighborhood.0" depart="214.60" departLane="-549232953#10_1" departPos="5.10" departPosLat="0.00" departSpeed="26.79" departDelay="0.00" arrival="372.00" arrivalLane="32425190#1_1" arrivalPos="142.43" arrivalPosLat="0.00" arrivalSpeed="13.36" duration="157.40" routeLength="2475.52" waitingTime="49.40" waitingCount="1" stopTime="0.00" timeLoss="56.82" rerouteNo="1" devices="tripinfo_StaRosatoNeighborhood.0 routing_StaRosatoNeighborhood.0" vType="car" speedFactor="0.96" vaporized=""/>
    <tripinfo id="CalambatoStaRosa.8" depart="160.50" departLane="32425220#0_2" departPos="5.10" departPosLat="0.00" departSpeed="27.52" departDelay="0.00" arrival="375.90" arrivalLane="549232953#10_1" arrivalPos="967.06" arrivalPosLat="-0.00" arrivalSpeed="27.52" duration="215.40" routeLength="3155.57" waitingTime="89.90" waitingCount="1" stopTime="0.00" timeLoss="100.70" rerouteNo="1" devices="tripinfo_CalambatoStaRosa.8 routing_CalambatoStaRosa.8" vType="car" speedFactor="0.99" vaporized=""/>
    <tripinfo id="StaRosatoCalamba.7" depart="261.90" departLane="-549232953#10_2" departPos="5.10" departPosLat="0.00" departSpeed="26.12" departDelay="0.00" arrival="394.70" arrivalLane="-32425220#0_1" arrivalPos="290.87" arrivalPosLat="-0.00" arrivalSpeed="26.11" duration="132.80" routeLength="3152.27" waitingTime="0.00" waitingCount="0" stopTime="0.00" timeLoss="12.02" rerouteNo="1" devices="tripinfo_StaRosatoCalamba.7 routing_StaRosatoCalamba.7" vType="car" speedFactor="0.94" vaporized=""/>
    <tripinfo id="StaRosatoNeighborhood.1" depart="297.00" departLane="-549232953#10_2" departPos="8.10" departPosLat="0.00" departSpeed="27.78" departDelay="0.00" arrival="398.70" arrivalLane="32425190#1_1" arrivalPos="142.43" arrivalPosLat="-0.00" arrivalSpeed="13.86" duration="101.70" routeLength="2472.52" waitingTime="0.00" waitingCount="0" stopTime="0.00" timeLoss="4.83" rerouteNo="1" devices="tripinfo_StaRosatoNeighborhood.1 routing_StaRosatoNeighborhood.1" vType="jeep" speedFactor="1.00" vaporized=""/>
    <tripinfo id="CalambatoStaRosa.10" depart="265.90" departLane="32425220#0_2" departPos="8.10" departPosLat="0.00" departSpeed="27.78" departDelay="0.00" arrival="402.30" arrivalLane="549232953#10_1" arrivalPos="967.06" arrivalPosLat="-0.00" arrivalSpeed="27.76" duration="136.40" routeLength="3152.57" waitingTime="0.00" waitingCount="0" stopTime="0.00" timeLoss="22.87" rerouteNo="1" devices="tripinfo_CalambatoStaRosa.10 routing_CalambatoStaRosa.10" vType="jeep" speedFactor="1.00" vaporized=""/>
    <tripinfo id="CalambatoBanlic-Mamatid.3" depart="263.00" departLane="32425220#0_1" departPos="8.10" departPosLat="0.00" departSpeed="27.78" departDelay="0.00" arrival="408.60" arrivalLane="-1346113028#0_1" arrivalPos="507.75" arrivalPosLat="0.00" arrivalSpeed="8.30" duration="145.60" routeLength="1734.47" waitingTime="0.00" waitingCount="0" stopTime="0.00" timeLoss="10.35" rerouteNo="1" devices="tripinfo_CalambatoBanlic-Mamatid.3 routing_CalambatoBanlic-Mamatid.3" vType="jeep" speedFactor="1.00" vaporized=""/>
    <tripinfo id="CalambatoStaRosa.9" depart="227.40" departLane="32425220#0_1" departPos="7.20" departPosLat="0.00" departSpeed="28.45" departDelay="0.00" arrival="409.00" arrivalLane="549232953#10_1" arrivalPos="967.06" arrivalPosLat="0.00" arrivalSpeed="28.43" duration="181.60" routeLength="3153.47" waitingTime="34.40" waitingCount="1" stopTime="0.00" timeLoss="70.73" rerouteNo="1" devices="tripinfo_CalambatoStaRosa.9 routing_CalambatoStaRosa.9" vType="truck" speedFactor="1.02" vaporized=""/>
    <tripinfo id="Banlic-MamatidtoStaRosa.1" depart="191.50" departLane="1346113028#0_1" departPos="8.10" departPosLat="0.00" departSpeed="8.33" departDelay="0.00" arrival="415.40" arrivalLane="549232953#10_1" arrivalPos="967.06" arrivalPosLat="-0.00" arrivalSpeed="27.73" duration="223.90" routeLength="3122.43" waitingTime="21.70" waitingCount="1" stopTime="0.00" timeLoss="39.40" rerouteNo="1" devices="tripinfo_Banlic-MamatidtoStaRosa.1 routing_Banlic-MamatidtoStaRosa.1" vType="jeep" speedFactor="1.00" vaporized=""/>