<?xml version="1.0" encoding="UTF-8"?>

<!-- generated on 2026-02-25 04:43:52 by Eclipse SUMO sumo Version 1.24.0
<sumoConfiguration xmlns:xsi="http://www.w3.org/2001/XMLSchema-instance" xsi:noNamespaceSchemaLocation="http://sumo.dlr.de/xsd/sumoConfiguration.xsd">

    <input>
        <net-file value="Banlic-Mamatid_traci/network/banlic-mamatid_signalized.net.xml"/>
        <route-files value="Banlic-Mamatid_traci/demand/flows_traffic_jam.rou.xml"/>
        <additional-files value="Banlic-Mamatid_traci/additionals/banlic-mamatid.poly.xml,Banlic-Mamatid_traci/ additionals/banlic-mamatid.add.xml"/>
    </input>

    <output>
        <tripinfo-output value="Banlic-Mamatid_traci/output_A2C/test_jam_heavy_traffic_trips.xml"/>
        <statistic-output value="Banlic-Mamatid_traci/output_A2C/test_jam_heavy_traffic_stats.xml"/>
    </output>

    <time>
        <begin value="0"/>
        <end value="10800"/>
        <step-length value="0.1"/>
    </time>

    <processing>
        <lateral-resolution value="0.1"/>
        <collision.action value="none"/>
        <collision.check-junctions value="false"/>
        <collision.mingap-factor value="0"/>
    </processing>

    <report>
        <no-warnings value="true"/>
    </report>

    <traci_server>
        <remote-port value="8814"/>
    </traci_server>

    <gui_only>
        <delay value="0"/>
    </gui_only>

</sumoConfiguration>
-->

<tripinfos xmlns:xsi="http://www.w3.org/2001/XMLSchema-instance" xsi:noNamespaceSchemaLocation="http://sumo.dlr.de/xsd/tripinfo_file.xsd">
    <tripinfo id="NeighborhoodtoCalamba.0" depart="15.30" departLane="-32425190#1_1" departPos="5.10" departPosLat="0.00" departSpeed="15.01" departDelay="0.00" arrival="62.70" arrivalLane="-32425220#0_2" arrivalPos="290.87" arrivalPosLat="0.00" arrivalSpeed="30.00" duration="47.40" routeLength="1056.50" waitingTime="0.00" waitingCount="0" stopTime="0.00" timeLoss="4.96" rerouteNo="1" devices="tripinfo_NeighborhoodtoCalamba.0 routing_NeighborhoodtoCalamba.0" vType="car" speedFactor="1.08" vaporized=""/>
    <tripinfo id="NeighborhoodtoStaRosa.0" depart="1.20" departLane="-32425190#1_1" departPos="2.30" departPosLat="0.00" departSpeed="15.14" departDelay="0.00" arrival="95.50" arrivalLane="549232953#10_1" arrivalPos="967.06" arrivalPosLat="0.00" arrivalSpeed="30.26" duration="94.30" routeLength="2486.66" waitingTime="0.00" waitingCount="0" stopTime="0.00" timeLoss="4.69" rerouteNo="1" devices="tripinfo_NeighborhoodtoStaRosa.0 routing_NeighborhoodtoStaRosa.0" vType="tricycle" speedFactor="1.09" vaporized=""/>
    <tripinfo id="StaRosatoCalamba.1" depart="6.90" departLane="-549232953#10_2" departPos="2.30" departPosLat="0.00" departSpeed="33.73" departDelay="0.00" arrival="117.90" arrivalLane="-32425220#0_1" arrivalPos="290.87" arrivalPosLat="-0.00" arrivalSpeed="33.67" duration="111.00" routeLength="3155.07" waitingTime="4.20" waitingCount="1" stopTime="0.00" timeLoss="17.39" rerouteNo="1" devices="tripinfo_StaRosatoCalamba.1 routing_StaRosatoCalamba.1" vType="tricycle" speedFactor="1.21" vaporized=""/>
    <tripinfo id="StaRosatoCalamba.2" depart="8.90" departLane="-549232953#10_1" departPos="5.10" departPosLat="0.00" departSpeed="30.26" departDelay="0.00" arrival="122.00" arrivalLane="-32425220#0_1" arrivalPos="290.87" arrivalPosLat="-0.00" arrivalSpeed="30.15" duration="113.10" routeLength="3152.27" waitingTime="0.00" waitingCount="0" stopTime="0.00" timeLoss="8.89" rerouteNo="1" devices="tripinfo_StaRosatoCalamba.2 routing_StaRosatoCalamba.2" vType="car" speedFactor="1.09" vaporized=""/>
    <tripinfo id="StaRosatoCalamba.0" depart="3.00" departLane="-549232953#10_1" departPos="7.20" departPosLat="0.00" departSpeed="24.77" departDelay="0.00" arrival="130.40" arrivalLane="-32425220#0_1" arrivalPos="290.87" arrivalPosLat="0.00" arrivalSpeed="24.72" duration="127.40" routeLength="3150.17" waitingTime="0.00" waitingCount="0" stopTime="0.00" timeLoss="0.17" rerouteNo="1" devices="tripinfo_StaRosatoCalamba.0 routing_StaRosatoCalamba.0" vType="truck" speedFactor="0.89" vaporized=""/>
    <tripinfo id="CalambatoStaRosa.0" depart="6.60" departLane="32425220#0_1" departPos="5.10" departPosLat="0.00" departSpeed="27.45" departDelay="0.00" arrival="133.30" arrivalLane="549232953#10_1" arrivalPos="967.06" arrivalPosLat="0.00" arrivalSpeed="27.44" duration="126.70" routeLength="3155.57" waitingTime="1.60" waitingCount="1" stopTime="0.00" timeLoss="11.71" rerouteNo="1" devices="tripinfo_CalambatoStaRosa.0 routing_CalambatoStaRosa.0" vType="car" speedFactor="0.99" vaporized=""/>
    <tripinfo id="StaRosatoCalamba.4" depart="27.10" departLane="-549232953#10_2" departPos="5.10" departPosLat="0.00" departSpeed="29.41" departDelay="0.00" arrival="134.60" arrivalLane="-32425220#0_1" arrivalPos="290.87" arrivalPosLat="-0.00" arrivalSpeed="29.32" duration="107.50" routeLength="3152.27" waitingTime="0.00" waitingCount="0" stopTime="0.00" timeLoss="0.24" rerouteNo="1" devices="tripinfo_StaRosatoCalamba.4 routing_StaRosatoCalamba.4" vType="car" speedFactor="1.06" vaporized=""/>
    <tripinfo id="StaRosatoNeighborhood.0" depart="31.00" departLane="-549232953#10_2" departPos="8.10" departPosLat="0.00" departSpeed="27.78" departDelay="0.00" arrival="137.00" arrivalLane="32425190#1_1" arrivalPos="142.43" arrivalPosLat="-0.00" arrivalSpeed="13.86" duration="106.00" routeLength="2472.52" waitingTime="0.00" waitingCount="0" stopTime="0.00" timeLoss="9.06" rerouteNo="1" devices="tripinfo_StaRosatoNeighborhood.0 routing_StaRosatoNeighborhood.0" vType="jeep" speedFactor="1.00" vaporized=""/>
    <tripinfo id="CalambatoStaRosa.1" depart="8.10" departLane="32425220#0_2" departPos="5.10" departPosLat="0.00" departSpeed="24.56" departDelay="0.00" arrival="138.30" arrivalLane="549232953#10_1" arrivalPos="967.06" arrivalPosLat="-0.00" arrivalSpeed="24.54" duration="130.20" routeLength="3155.57" waitingTime="0.00" waitingCount="0" stopTime="0.00" timeLoss="1.70" rerouteNo="1" devices="tripinfo_CalambatoStaRosa.1 routing_CalambatoStaRosa.1" vType="car" speedFactor="0.88" vaporized=""/>
    <tripinfo id="StaRosatoCalamba.5" depart="29.30" departLane="-549232953#10_1" departPos="7.20" departPosLat="0.00" departSpeed="27.63" departDelay="0.00" arrival="143.50" arrivalLane="-32425220#0_2" arrivalPos="290.87" arrivalPosLat="0.00" arrivalSpeed="27.58" duration="114.20" routeLength="3150.17" waitingTime="0.00" waitingCount="0" stopTime="0.00" timeLoss="0.13" rerouteNo="1" devices="tripinfo_StaRosatoCalamba.5 routing_StaRosatoCalamba.5" vType="truck" speedFactor="0.99" vaporized=""/>
    <personinfo id="SavemoretoJeepPila.0" depart="0.00" type="ped" speedFactor="0.98" duration="151.60" waitingTime="36.80" timeLoss="48.57" traveltime="151.60">
        <walk depart="0.00" departPos="0.00" arrival="151.60" arrivalPos="25.71" duration="151.60" routeLength="140.94" timeLoss="48.57" maxSpeed="1.37" waitingTime="36.80"/>
    </personinfo>
    <personinfo id="InasaltoPalengke.0" depart="0.00" type="ped" speedFactor="1.14" duration="154.00" waitingTime="119.90" timeLoss="123.55" traveltime="154.00">
        <walk depart="0.00" departPos="0.00" arrival="154.00" arrivalPos="34.28" duration="154.00" routeLength="48.06" timeLoss="123.55" maxSpeed="1.58" waitingTime="119.90"/>
    </personinfo>
    <tripinfo id="StaRosatoCalamba.3" depart="16.40" departLane="-549232953#10_2" departPos="5.10" departPosLat="0.00" departSpeed="22.87" departDelay="0.00" arrival="154.70" arrivalLane="-32425220#0_1" arrivalPos="290.87" arrivalPosLat="-0.00" arrivalSpeed="22.78" duration="138.30" routeLength="3152.27" waitingTime="0.00" waitingCount="0" stopTime="0.00" timeLoss="0.39" rerouteNo="1" devices="tripinfo_StaRosatoCalamba.3 routing_StaRosatoCalamba.3" vType="car" speedFactor="0.82" vaporized=""/>
    <personinfo id="InasaltoPalengke.1" depart="48.00" type="ped" speedFactor="1.06" duration="106.90" waitingTime="69.80" timeLoss="74.13" traveltime="106.90">
        <walk depart="48.00" departPos="0.00" arrival="154.90" arrivalPos="34.28" duration="106.90" routeLength="48.06" timeLoss="74.13" maxSpeed="1.47" waitingTime="69.80"/>
    </personinfo>
    <tripinfo id="CalambatoNeighborhood.0" depart="22.80" departLane="32425220#0_2" departPos="2.30" departPosLat="0.00" departSpeed="30.60" departDelay="0.00" arrival="156.30" arrivalLane="32425190#1_1" arrivalPos="142.43" arrivalPosLat="0.00" arrivalSpeed="15.06" duration="133.50" routeLength="1072.85" waitingTime="87.90" waitingCount="1" stopTime="0.00" timeLoss="90.91" rerouteNo="1" devices="tripinfo_CalambatoNeighborhood.0 routing_CalambatoNeighborhood.0" vType="motorcycle" speedFactor="1.10" vaporized=""/>
    <personinfo id="InasaltoPalengke.2" depart="96.00" type="ped" speedFactor="0.88" duration="63.40" waitingTime="19.80" timeLoss="24.14" traveltime="63.40">
        <walk depart="96.00" departPos="0.00" arrival="159.40" arrivalPos="34.28" duration="63.40" routeLength="48.06" timeLoss="24.14" maxSpeed="1.22" waitingTime="19.80"/>
    </personinfo>
    <personinfo id="PalengketoInasal.1" depart="48.00" type="ped" speedFactor="1.10" duration="113.10" waitingTime="70.20" timeLoss="74.70" traveltime="113.10">
        <walk depart="48.00" departPos="0.00" arrival="161.10" arrivalPos="44.65" duration="113.10" routeLength="58.43" timeLoss="74.70" maxSpeed="1.52" waitingTime="70.20"/>
    </personinfo>
    <personinfo id="InasaltoSavemore.0" depart="0.00" type="ped" speedFactor="1.18" duration="161.80" waitingTime="118.90" timeLoss="123.59" traveltime="161.80">
        <walk depart="0.00" departPos="0.00" arrival="161.80" arrivalPos="44.65" duration="161.80" routeLength="62.53" timeLoss="123.59" maxSpeed="1.64" waitingTime="118.90"/>
    </personinfo>
    <personinfo id="PalengketoInasal.2" depart="96.00" type="ped" speedFactor="1.08" duration="67.30" waitingTime="23.80" timeLoss="28.34" traveltime="67.30">
        <walk depart="96.00" departPos="0.00" arrival="163.30" arrivalPos="44.65" duration="67.30" routeLength="58.43" timeLoss="28.34" maxSpeed="1.50" waitingTime="23.80"/>
    </personinfo>
    <tripinfo id="CalambatoNeighborhood.1" depart="87.10" departLane="32425220#0_2" departPos="7.20" departPosLat="0.00" departSpeed="28.43" departDelay="0.00" arrival="166.00" arrivalLane="32425190#1_1" arrivalPos="142.43" arrivalPosLat="0.00" arrivalSpeed="14.17" duration="78.90" routeLength="1067.95" waitingTime="10.10" waitingCount="1" stopTime="0.00" timeLoss="33.32" rerouteNo="1" devices="tripinfo_CalambatoNeighborhood.1 routing_CalambatoNeighborhood.1" vType="truck" speedFactor="1.02" vaporized=""/>
    <personinfo id="InasaltoSavemore.2" depart="96.00" type="ped" speedFactor="1.02" duration="71.60" waitingTime="22.70" timeLoss="27.58" traveltime="71.60">
        <walk depart="96.00" departPos="0.00" arrival="167.60" arrivalPos="44.65" duration="71.60" routeLength="62.53" timeLoss="27.58" maxSpeed="1.42" waitingTime="22.70"/>
    </personinfo>
    <personinfo id="InasaltoSavemore.1" depart="48.00" type="ped" speedFactor="1.13" duration="120.00" waitingTime="72.60" timeLoss="80.02" traveltime="120.00">
        <walk depart="48.00" departPos="0.00" arrival="168.00" arrivalPos="44.65" duration="120.00" routeLength="62.53" timeLoss="80.02" maxSpeed="1.56" waitingTime="72.60"/>
    </personinfo>
    <personinfo id="SavemoretoInasal.0" depart="0.00" type="ped" speedFactor="0.96" duration="170.50" waitingTime="44.30" timeLoss="123.75" traveltime="170.50">
        <walk depart="0.00" departPos="0.00" arrival="170.50" arrivalPos="44.65" duration="170.50" routeLength="62.53" timeLoss="123.75" maxSpeed="1.34" waitingTime="44.30"/>
    </personinfo>
    <personinfo id="SavemoretoInasal.1" depart="48.00" type="ped" speedFactor="1.00" duration="122.90" waitingTime="0.70" timeLoss="78.08" traveltime="122.90">
        <walk depart="48.00" departPos="0.00" arrival="170.90" arrivalPos="44.65" duration="122.90" routeLength="62.53" timeLoss="78.08" maxSpeed="1.40" waitingTime="0.70"/>
    </personinfo>
    <personinfo id="JeepPilatoSavemore.0" depart="0.00" type="ped" speedFactor="1.07" duration="172.20" waitingTime="119.10" timeLoss="124.57" traveltime="172.20">
        <walk depart="0.00" departPos="0.00" arrival="172.20" arrivalPos="44.65" duration="172.20" routeLength="70.59" timeLoss="124.57" maxSpeed="1.48" waitingTime="119.10"/>
    </personinfo>
    <personinfo id="PalengketoInasal.0" depart="0.00" type="ped" speedFactor="0.81" duration="176.40" waitingTime="118.60" timeLoss="124.55" traveltime="176.40">
        <walk depart="0.00" departPos="0.00" arrival="176.40" arrivalPos="44.65" duration="176.40" routeLength="58.43" timeLoss="124.55" maxSpeed="1.13" waitingTime="118.60"/>
    </personinfo>
    <personinfo id="JeepPilatoSavemore.1" depart="48.00" type="ped" speedFactor="0.89" duration="133.20" waitingTime="69.60" timeLoss="76.05" traveltime="133.20">
        <walk depart="48.00" departPos="0.00" arrival="181.20" arrivalPos="44.65" duration="133.20" routeLength="70.59" timeLoss="76.05" maxSpeed="1.24" waitingTime="69.60"/>
    </personinfo>
    <personinfo id="JeepPilatoSavemore.2" depart="96.00" type="ped" speedFactor="0.98" duration="85.60" waitingTime="25.20" timeLoss="33.48" traveltime="85.60">
        <walk depart="96.00" departPos="0.00" arrival="181.60" arrivalPos="44.65" duration="85.60" routeLength="70.59" timeLoss="33.48" maxSpeed="1.35" waitingTime="25.20"/>
    </personinfo>
    <tripinfo id="StaRosatoCalamba.9" depart="48.10" departLane="-549232953#10_1" departPos="2.30" departPosLat="0.00" departSpeed="32.47" departDelay="0.00" arrival="186.30" arrivalLane="-32425220#0_1" arrivalPos="290.87" arrivalPosLat="0.00" arrivalSpeed="32.41" duration="138.20" routeLength="3155.07" waitingTime="25.40" waitingCount="2" stopTime="0.00" timeLoss="41.02" rerouteNo="1" devices="tripinfo_StaRosatoCalamba.9 routing_StaRosatoCalamba.9" vType="motorcycle" speedFactor="1.17" vaporized=""/>
    <tripinfo id="StaRosatoBanlic-Mamatid.0" depart="18.00" departLane="-549232953#10_1" departPos="5.10" departPosLat="0.00" departSpeed="30.31" departDelay="0.00" arrival="191.20" arrivalLane="-1346113028#0_1" arrivalPos="507.75" arrivalPosLat="0.00" arrivalSpeed="9.01" duration="173.20" routeLength="3135.81" waitingTime="0.00" waitingCount="0" stopTime="0.00" timeLoss="2.70" rerouteNo="1" devices="tripinfo_StaRosatoBanlic-Mamatid.0 routing_StaRosatoBanlic-Mamatid.0" vType="car" speedFactor="1.09" vaporized=""/>
    <tripinfo id="Banlic-MamatidtoCalamba.0" depart="13.90" departLane="1346113028#0_1" departPos="2.30" departPosLat="0.00" departSpeed="8.78" departDelay="0.00" arrival="196.50" arrivalLane="-32425220#0_1" arrivalPos="290.87" arrivalPosLat="0.00" arrivalSpeed="29.38" duration="182.60" routeLength="1745.33" waitingTime="19.50" waitingCount="1" stopTime="0.00" timeLoss="54.52" rerouteNo="1" devices="tripinfo_Banlic-MamatidtoCalamba.0 routing_Banlic-MamatidtoCalamba.0" vType="tricycle" speedFactor="1.06" vaporized=""/>
    <tripinfo id="Banlic-MamatidtoCalamba.1" depart="62.00" departLane="1346113028#0_1" departPos="8.10" departPosLat="0.00" departSpeed="8.33" departDelay="0.00" arrival="206.80" arrivalLane="-32425220#0_1" arrivalPos="290.87" arrivalPosLat="0.00" arrivalSpeed="27.76" duration="144.80" routeLength="1739.53" waitingTime="0.00" waitingCount="0" stopTime="0.00" timeLoss="9.64" rerouteNo="1" devices="tripinfo_Banlic-MamatidtoCalamba.1 routing_Banlic-MamatidtoCalamba.1" vType="jeep" speedFactor="1.00" vaporized=""/>
    <tripinfo id="StaRosatoNeighborhood.1" depart="61.00" departLane="-549232953#10_1" departPos="2.30" departPosLat="0.00" departSpeed="31.90" departDelay="0.00" arrival="210.20" arrivalLane="32425190#1_1" arrivalPos="142.43" arrivalPosLat="-0.00" arrivalSpeed="15.94" duration="149.20" routeLength="2478.32" waitingTime="21.40" waitingCount="1" stopTime="0.00" timeLoss="64.59" rerouteNo="1" devices="tripinfo_StaRosatoNeighborhood.1 routing_StaRosatoNeighborhood.1" vType="tricycle" speedFactor="1.15" vaporized=""/>
    <tripinfo id="CalambatoStaRosa.2" depart="17.30" departLane="32425220#0_1" departPos="5.10" departPosLat="0.00" departSpeed="28.21" departDelay="0.00" arrival="218.50" arrivalLane="549232953#10_1" arrivalPos="967.06" arrivalPosLat="0.00" arrivalSpeed="28.20" duration="201.20" routeLength="3155.57" waitingTime="78.90" waitingCount="1" stopTime="0.00" timeLoss="89.28" rerouteNo="1" devices="tripinfo_CalambatoStaRosa.2 routing_CalambatoStaRosa.2" vType="car" speedFactor="1.02" vaporized=""/>
    <tripinfo id="CalambatoStaRosa.3" depart="26.60" departLane="32425220#0_1" departPos="5.10" departPosLat="0.00" departSpeed="27.38" departDelay="0.00" arrival="220.70" arrivalLane="549232953#10_1" arrivalPos="967.06" arrivalPosLat="-0.00" arrivalSpeed="27.38" duration="194.10" routeLength="3155.57" waitingTime="61.40" waitingCount="2" stopTime="0.00" timeLoss="78.74" rerouteNo="1" devices="tripinfo_CalambatoStaRosa.3 routing_CalambatoStaRosa.3" vType="car" speedFactor="0.99" vaporized=""/>
    <tripinfo id="StaRosatoCalamba.6" depart="41.40" departLane="-549232953#10_1" departPos="5.10" departPosLat="0.00" departSpeed="28.87" departDelay="0.00" arrival="223.90" arrivalLane="-32425220#0_2" arrivalPos="290.87" arrivalPosLat="0.00" arrivalSpeed="28.76" duration="182.50" routeLength="3152.27" waitingTime="62.40" waitingCount="1" stopTime="0.00" timeLoss="73.24" rerouteNo="1" devices="tripinfo_StaRosatoCalamba.6 routing_StaRosatoCalamba.6" vType="car" speedFactor="1.04" vaporized=""/>
    <tripinfo id="CalambatoStaRosa.10" depart="57.10" departLane="32425220#0_1" departPos="5.10" departPosLat="0.00" departSpeed="29.87" departDelay="0.00" arrival="225.30" arrivalLane="549232953#10_2" arrivalPos="967.06" arrivalPosLat="0.00" arrivalSpeed="29.77" duration="168.20" routeLength="3155.57" waitingTime="37.30" waitingCount="1" stopTime="0.00" timeLoss="62.54" rerouteNo="1" devices="tripinfo_CalambatoStaRosa.10 routing_CalambatoStaRosa.10" vType="car" speedFactor="1.08" vaporized=""/>
    <tripinfo id="CalambatoStaRosa.4" depart="30.30" departLane="32425220#0_2" departPos="7.20" departPosLat="0.00" departSpeed="27.43" departDelay="0.00" arrival="227.90" arrivalLane="549232953#10_1" arrivalPos="967.06" arrivalPosLat="-0.00" arrivalSpeed="27.39" duration="197.60" routeLength="3153.47" waitingTime="57.10" waitingCount="1" stopTime="0.00" timeLoss="82.59" rerouteNo="1" devices="tripinfo_CalambatoStaRosa.4 routing_CalambatoStaRosa.4" vType="truck" speedFactor="0.99" vaporized=""/>
    <tripinfo id="StaRosatoCalamba.7" depart="44.80" departLane="-549232953#10_1" departPos="5.10" departPosLat="0.00" departSpeed="24.74" departDelay="0.00" arrival="228.20" arrivalLane="-32425220#0_1" arrivalPos="290.87" arrivalPosLat="0.00" arrivalSpeed="24.64" duration="183.40" routeLength="3152.27" waitingTime="37.20" waitingCount="2" stopTime="0.00" timeLoss="55.92" rerouteNo="1" devices="tripinfo_StaRosatoCalamba.7 routing_StaRosatoCalamba.7" vType="car" speedFactor="0.89" vaporized=""/>
    <tripinfo id="StaRosatoCalamba.10" depart="48.40" departLane="-549232953#10_2" departPos="2.30" departPosLat="0.00" departSpeed="27.86" departDelay="0.00" arrival="229.40" arrivalLane="-32425220#0_1" arrivalPos="290.87" arrivalPosLat="0.00" arrivalSpeed="26.47" duration="181.00" routeLength="3155.07" waitingTime="30.80" waitingCount="1" stopTime="0.00" timeLoss="67.74" rerouteNo="1" devices="tripinfo_StaRosatoCalamba.10 routing_StaRosatoCalamba.10" vType="tricycle" speedFactor="1.00" vaporized=""/>
    <tripinfo id="CalambatoStaRosa.8" depart="39.60" departLane="32425220#0_2" departPos="2.30" departPosLat="0.00" departSpeed="29.02" departDelay="0.00" arrival="230.30" arrivalLane="549232953#10_2" arrivalPos="967.06" arrivalPosLat="0.00" arrivalSpeed="28.99" duration="190.70" routeLength="3158.37" waitingTime="48.70" waitingCount="16" stopTime="0.00" timeLoss="81.86" rerouteNo="1" devices="tripinfo_CalambatoStaRosa.8 routing_CalambatoStaRosa.8" vType="motorcycle" speedFactor="1.04" vaporized=""/>
    <tripinfo id="StaRosatoNeighborhood.2" depart="127.10" departLane="-549232953#10_2" departPos="2.30" departPosLat="0.00" departSpeed="28.12" departDelay="0.00" arrival="230.40" arrivalLane="32425190#1_1" arrivalPos="142.43" arrivalPosLat="-0.00" arrivalSpeed="14.06" duration="103.30" routeLength="2478.32" waitingTime="0.00" waitingCount="0" stopTime="0.00" timeLoss="7.46" rerouteNo="1" devices="tripinfo_StaRosatoNeighborhood.2 routing_StaRosatoNeighborhood.2" vType="tricycle" speedFactor="1.01" vaporized=""/>
    <tripinfo id="StaRosatoCalamba.8" depart="46.60" departLane="-549232953#10_2" departPos="5.10" departPosLat="0.00" departSpeed="25.03" departDelay="0.00" arrival="230.60" arrivalLane="-32425220#0_2" arrivalPos="290.87" arrivalPosLat="-0.09" arrivalSpeed="24.96" duration="184.00" routeLength="3152.27" waitingTime="26.80" waitingCount="1" stopTime="0.00" timeLoss="58.05" rerouteNo="1" devices="tripinfo_StaRosatoCalamba.8 routing_StaRosatoCalamba.8" vType="car" speedFactor="0.90" vaporized=""/>
    <tripinfo id="NeighborhoodtoStaRosa.1" depart="74.50" departLane="-32425190#1_1" departPos="12.10" departPosLat="0.00" departSpeed="13.89" departDelay="0.00" arrival="231.30" arrivalLane="549232953#10_1" arrivalPos="967.06" arrivalPosLat="0.00" arrivalSpeed="27.75" duration="156.80" routeLength="2476.86" waitingTime="38.60" waitingCount="1" stopTime="0.00" timeLoss="59.82" rerouteNo="1" devices="tripinfo_NeighborhoodtoStaRosa.1 routing_NeighborhoodtoStaRosa.1" vType="bus" speedFactor="1.00" vaporized=""/>
    <tripinfo id="StaRosatoCalamba.12" depart="54.10" departLane="-549232953#10_2" departPos="5.10" departPosLat="0.00" departSpeed="27.92" departDelay="0.00" arrival="231.90" arrivalLane="-32425220#0_2" arrivalPos="290.87" arrivalPosLat="-1.40" arrivalSpeed="27.48" duration="177.80" routeLength="3152.27" waitingTime="22.70" waitingCount="1" stopTime="0.00" timeLoss="64.85" rerouteNo="1" devices="tripinfo_StaRosatoCalamba.12 routing_StaRosatoCalamba.12" vType="car" speedFactor="1.01" vaporized=""/>
    <tripinfo id="StaRosatoCalamba.14" depart="69.40" departLane="-549232953#10_1" departPos="2.30" departPosLat="0.00" departSpeed="28.64" departDelay="0.00" arrival="231.90" arrivalLane="-32425220#0_2" arrivalPos="290.87" arrivalPosLat="0.85" arrivalSpeed="26.77" duration="162.50" routeLength="3155.07" waitingTime="25.00" waitingCount="1" stopTime="0.00" timeLoss="52.26" rerouteNo="1" devices="tripinfo_StaRosatoCalamba.14 routing_StaRosatoCalamba.14" vType="tricycle" speedFactor="1.03" vaporized=""/>
    <tripinfo id="StaRosatoCalamba.11" depart="53.80" departLane="-549232953#10_1" departPos="5.10" departPosLat="0.00" departSpeed="27.72" departDelay="0.00" arrival="232.00" arrivalLane="-32425220#0_1" arrivalPos="290.87" arrivalPosLat="-0.69" arrivalSpeed="27.67" duration="178.20" routeLength="3152.27" waitingTime="24.50" waitingCount="1" stopTime="0.00" timeLoss="64.44" rerouteNo="1" devices="tripinfo_StaRosatoCalamba.11 routing_StaRosatoCalamba.11" vType="car" speedFactor="1.00" vaporized=""/>
    <tripinfo id="CalambatoStaRosa.6" depart="35.30" departLane="32425220#0_2" departPos="5.10" departPosLat="0.00" departSpeed="27.76" departDelay="0.00" arrival="233.00" arrivalLane="549232953#10_1" arrivalPos="967.06" arrivalPosLat="0.00" arrivalSpeed="27.73" duration="197.70" routeLength="3155.57" waitingTime="61.80" waitingCount="2" stopTime="0.00" timeLoss="83.95" rerouteNo="1" devices="tripinfo_CalambatoStaRosa.6 routing_CalambatoStaRosa.6" vType="car" speedFactor="1.00" vaporized=""/>
    <tripinfo id="StaRosatoCalamba.13" depart="67.10" departLane="-549232953#10_2" departPos="5.10" departPosLat="0.00" departSpeed="27.11" departDelay="0.00" arrival="233.30" arrivalLane="-32425220#0_1" arrivalPos="290.87" arrivalPosLat="-0.00" arrivalSpeed="27.06" duration="166.20" routeLength="3152.27" waitingTime="19.60" waitingCount="1" stopTime="0.00" timeLoss="49.89" rerouteNo="1" devices="tripinfo_StaRosatoCalamba.13 routing_StaRosatoCalamba.13" vType="car" speedFactor="0.98" vaporized=""/>
    <tripinfo id="StaRosatoCalamba.15" depart="81.40" departLane="-549232953#10_2" departPos="2.30" departPosLat="0.00" departSpeed="27.27" departDelay="0.00" arrival="234.50" arrivalLane="-32425220#0_1" arrivalPos="290.87" arrivalPosLat="0.00" arrivalSpeed="27.20" duration="153.10" routeLength="3155.07" waitingTime="18.00" waitingCount="1" stopTime="0.00" timeLoss="37.35" rerouteNo="1" devices="tripinfo_StaRosatoCalamba.15 routing_StaRosatoCalamba.15" vType="motorcycle" speedFactor="0.98" vaporized=""/>
    <tripinfo id="StaRosatoCalamba.16" depart="95.70" departLane="-549232953#10_2" departPos="2.30" departPosLat="0.00" departSpeed="29.89" departDelay="0.00" arrival="235.60" arrivalLane="-32425220#0_1" arrivalPos="290.87" arrivalPosLat="-0.00" arrivalSpeed="28.73" duration="139.90" routeLength="3155.07" waitingTime="12.70" waitingCount="1" stopTime="0.00" timeLoss="34.33" rerouteNo="1" devices="tripinfo_StaRosatoCalamba.16 routing_StaRosatoCalamba.16" vType="tricycle" speedFactor="1.08" vaporized=""/>
    <tripinfo id="CalambatoStaRosa.5" depart="34.40" departLane="32425220#0_1" departPos="5.10" departPosLat="0.00" departSpeed="24.89" departDelay="0.00" arrival="242.10" arrivalLane="549232953#10_1" arrivalPos="967.06" arrivalPosLat="0.00" arrivalSpeed="24.80" duration="207.70" routeLength="3155.57" waitingTime="59.10" waitingCount="4" stopTime="0.00" timeLoss="80.89" rerouteNo="1" devices="tripinfo_CalambatoStaRosa.5 routing_CalambatoStaRosa.5" vType="car" speedFactor="0.90" vaporized=""/>
    <tripinfo id="CalambatoStaRosa.9" depart="56.20" departLane="32425220#0_2" departPos="2.30" departPosLat="0.00" departSpeed="24.26" departDelay="0.00" arrival="243.20" arrivalLane="549232953#10_2" arrivalPos="967.06" arrivalPosLat="0.00" arrivalSpeed="24.11" duration="187.00" routeLength="3158.37" waitingTime="35.30" waitingCount="1" stopTime="0.00" timeLoss="56.72" rerouteNo="1" devices="tripinfo_CalambatoStaRosa.9 routing_CalambatoStaRosa.9" vType="motorcycle" speedFactor="0.87" vaporized=""/>
    <tripinfo id="CalambatoStaRosa.7" depart="38.20" departLane="32425220#0_1" departPos="5.10" departPosLat="0.00" departSpeed="26.74" departDelay="0.00" arrival="243.40" arrivalLane="549232953#10_2" arrivalPos="967.06" arrivalPosLat="-1.55" arrivalSpeed="26.62" duration="205.20" routeLength="3155.57" waitingTime="56.90" waitingCount="3" stopTime="0.00" timeLoss="87.13" rerouteNo="1" devices="tripinfo_CalambatoStaRosa.7 routing_CalambatoStaRosa.7" vType="car" speedFactor="0.96" vaporized=""/>
    <tripinfo id="CalambatoStaRosa.11" depart="63.70" departLane="32425220#0_2" departPos="7.20" departPosLat="0.00" departSpeed="28.03" departDelay="0.00" arrival="246.00" arrivalLane="549232953#10_1" arrivalPos="967.06" arrivalPosLat="-0.00" arrivalSpeed="27.01" duration="182.30" routeLength="3153.47" waitingTime="30.10" waitingCount="1" stopTime="0.00" timeLoss="79.99" rerouteNo="1" devices="tripinfo_CalambatoStaRosa.11 routing_CalambatoStaRosa.11" vType="truck" speedFactor="1.11" vaporized=""/>
    <tripinfo id="Banlic-MamatidtoStaRosa.2" depart="50.20" departLane="1346113028#0_1" departPos="7.20" departPosLat="0.00" departSpeed="8.95" departDelay="0.00" arrival="249.90" arrivalLane="549232953#10_2" arrivalPos="967.06" arrivalPosLat="0.00" arrivalSpeed="29.78" duration="199.70" routeLength="3123.33" waitingTime="8.70" waitingCount="1" stopTime="0.00" timeLoss="27.78" rerouteNo="1" devices="tripinfo_Banlic-MamatidtoStaRosa.2 routing_Banlic-MamatidtoStaRosa.2" vType="truck" speedFactor="1.07" vaporized=""/>
    <tripinfo id="StaRosatoCalamba.18" depart="128.20" departLane="-549232953#10_1" departPos="8.10" departPosLat="0.00" departSpeed="27.78" departDelay="0.00" arrival="252.10" arrivalLane="-32425220#0_1" arrivalPos="290.87" arrivalPosLat="-0.00" arrivalSpeed="27.74" duration="123.90" routeLength="3149.27" waitingTime="0.00" waitingCount="0" stopTime="0.00" timeLoss="10.48" rerouteNo="1" devices="tripinfo_StaRosatoCalamba.18 routing_StaRosatoCalamba.18" vType="jeep" speedFactor="1.00" vaporized=""/>
    <tripinfo id="NeighborhoodtoBanlic-Mamatid.0" depart="67.30" departLane="-32425190#1_1" departPos="5.10" departPosLat="0.00" departSpeed="12.56" departDelay="0.00" arrival="253.30" arrivalLane="-1346113028#0_1" arrivalPos="507.75" arrivalPosLat="0.00" arrivalSpeed="7.43" duration="186.00" routeLength="1065.76" waitingTime="47.00" waitingCount="1" stopTime="0.00" timeLoss="54.03" rerouteNo="1" devices="tripinfo_NeighborhoodtoBanlic-Mamatid.0 routing_NeighborhoodtoBanlic-Mamatid.0" vType="car" speedFactor="0.90" vaporized=""/>
    <tripinfo id="StaRosatoCalamba.17" depart="125.80" departLane="-549232953#10_1" departPos="8.10" departPosLat="0.00" departSpeed="27.78" departDelay="0.00" arrival="253.30" arrivalLane="-32425220#0_2" arrivalPos="290.87" arrivalPosLat="0.00" arrivalSpeed="27.75" duration="127.50" routeLength="3149.27" waitingTime="0.00" waitingCount="0" stopTime="0.00" timeLoss="14.14" rerouteNo="1" devices="tripinfo_StaRosatoCalamba.17 routing_StaRosatoCalamba.17" vType="jeep" speedFactor="1.00" vaporized=""/>
    <tripinfo id="CalambatoBanlic-Mamatid.0" depart="40.30" departLane="32425220#0_1" departPos="5.10" departPosLat="0.00" departSpeed="27.82" departDelay="0.00" arrival="255.20" arrivalLane="-1346113028#0_1" arrivalPos="507.75" arrivalPosLat="0.00" arrivalSpeed="8.32" duration="214.90" routeLength="1737.47" waitingTime="51.90" waitingCount="2" stopTime="0.00" timeLoss="79.66" rerouteNo="1" devices="tripinfo_CalambatoBanlic-Mamatid.0 routing_CalambatoBanlic-Mamatid.0" vType="car" speedFactor="1.00" vaporized=""/>