<?xml version="1.0" encoding="UTF-8"?>

<!-- generated on 2026-02-23 22:27:05 by Eclipse SUMO sumo Version 1.24.0
<sumoConfiguration xmlns:xsi="http://www.w3.org/2001/XMLSchema-instance" xsi:noNamespaceSchemaLocation="http://sumo.dlr.de/xsd/sumoConfiguration.xsd">

    <input>
        <net-file value="Banlic-Mamatid_traci/network/banlic-mamatid_signalized.net.xml"/>
        <route-files value="Banlic-Mamatid_traci/demand/flows_traffic_jam.rou.xml"/>
        <additional-files value="Banlic-Mamatid_traci/additionals/banlic-mamatid.poly.xml,Banlic-Mamatid_traci/ additionals/banlic-mamatid.add.xml"/>
    </input>

    <output>
        <tripinfo-output value="Banlic-Mamatid_traci/output_A2C/test_jam_trips.xml"/>
        <statistic-output value="Banlic-Mamatid_traci/output_A2C/test_jam_stats.xml"/>
    </output>

    <time>
        <begin value="0"/>
        <end value="10800"/>
        <step-length value="0.1"/>
    </time>

    <processing>
        <lateral-resolution value="0.1"/>
        <collision.action value="none"/>
        <collision.check-junctions value="false"/>
        <collision.mingap-factor value="0"/>
    </processing>

    <report>
        <no-warnings value="true"/>
    </report>

    <traci_server>
        <remote-port value="58480"/>
    </traci_server>

    <gui_only>
        <delay value="0"/>
    </gui_only>

</sumoConfiguration>
-->

<tripinfos xmlns:xsi="http://www.w3.org/2001/XMLSchema-instance" xsi:noNamespaceSchemaLocation="http://sumo.dlr.de/xsd/tripinfo_file.xsd">
    <tripinfo id="NeighborhoodtoCalamba.0" depart="15.30" departLane="-32425190#1_1" departPos="5.10" departPosLat="0.00" departSpeed="15.01" departDelay="0.00" arrival="62.70" arrivalLane="-32425220#0_2" arrivalPos="290.87" arrivalPosLat="0.00" arrivalSpeed="29.95" duration="47.40" routeLength="1056.50" waitingTime="0.00" waitingCount="0" stopTime="0.00" timeLoss="4.96" rerouteNo="1" devices="tripinfo_NeighborhoodtoCalamba.0 routing_NeighborhoodtoCalamba.0" vType="car" speedFactor="1.08" vaporized=""/>
    <tripinfo id="CalambatoNeighborhood.0" depart="22.80" departLane="32425220#0_2" departPos="2.30" departPosLat="0.00" departSpeed="30.60" departDelay="0.00" arrival="66.60" arrivalLane="32425190#1_1" arrivalPos="142.43" arrivalPosLat="0.00" arrivalSpeed="15.24" duration="43.80" routeLength="1072.85" waitingTime="0.00" waitingCount="0" stopTime="0.00" timeLoss="1.22" rerouteNo="1" devices="tripinfo_CalambatoNeighborhood.0 routing_CalambatoNeighborhood.0" vType="motorcycle" speedFactor="1.10" vaporized=""/>
    <tripinfo id="NeighborhoodtoStaRosa.0" depart="1.20" departLane="-32425190#1_1" departPos="2.30" departPosLat="0.00" departSpeed="15.14" departDelay="0.00" arrival="95.50" arrivalLane="549232953#10_1" arrivalPos="967.06" arrivalPosLat="0.00" arrivalSpeed="30.26" duration="94.30" routeLength="2486.66" waitingTime="0.00" waitingCount="0" stopTime="0.00" timeLoss="4.69" rerouteNo="1" devices="tripinfo_NeighborhoodtoStaRosa.0 routing_NeighborhoodtoStaRosa.0" vType="tricycle" speedFactor="1.09" vaporized=""/>
    <tripinfo id="CalambatoStaRosa.2" depart="17.30" departLane="32425220#0_1" departPos="5.10" departPosLat="0.00" departSpeed="28.21" departDelay="0.00" arrival="130.20" arrivalLane="549232953#10_1" arrivalPos="967.06" arrivalPosLat="1.55" arrivalSpeed="28.14" duration="112.90" routeLength="3155.57" waitingTime="0.00" waitingCount="0" stopTime="0.00" timeLoss="0.95" rerouteNo="1" devices="tripinfo_CalambatoStaRosa.2 routing_CalambatoStaRosa.2" vType="car" speedFactor="1.02" vaporized=""/>
    <tripinfo id="CalambatoStaRosa.0" depart="6.60" departLane="32425220#0_1" departPos="5.10" departPosLat="0.00" departSpeed="27.45" departDelay="0.00" arrival="133.30" arrivalLane="549232953#10_1" arrivalPos="967.06" arrivalPosLat="0.00" arrivalSpeed="27.36" duration="126.70" routeLength="3155.57" waitingTime="1.60" waitingCount="1" stopTime="0.00" timeLoss="11.71" rerouteNo="1" devices="tripinfo_CalambatoStaRosa.0 routing_CalambatoStaRosa.0" vType="car" speedFactor="0.99" vaporized=""/>
    <tripinfo id="CalambatoStaRosa.1" depart="8.10" departLane="32425220#0_2" departPos="5.10" departPosLat="0.00" departSpeed="24.56" departDelay="0.00" arrival="138.30" arrivalLane="549232953#10_1" arrivalPos="967.06" arrivalPosLat="-0.00" arrivalSpeed="24.53" duration="130.20" routeLength="3155.57" waitingTime="0.00" waitingCount="0" stopTime="0.00" timeLoss="1.70" rerouteNo="1" devices="tripinfo_CalambatoStaRosa.1 routing_CalambatoStaRosa.1" vType="car" speedFactor="0.88" vaporized=""/>
    <tripinfo id="CalambatoStaRosa.3" depart="26.60" departLane="32425220#0_1" departPos="5.10" departPosLat="0.00" departSpeed="27.38" departDelay="0.00" arrival="142.20" arrivalLane="549232953#10_1" arrivalPos="967.06" arrivalPosLat="0.00" arrivalSpeed="27.36" duration="115.60" routeLength="3155.57" waitingTime="0.00" waitingCount="0" stopTime="0.00" timeLoss="0.27" rerouteNo="1" devices="tripinfo_CalambatoStaRosa.3 routing_CalambatoStaRosa.3" vType="car" speedFactor="0.99" vaporized=""/>
    <tripinfo id="CalambatoStaRosa.4" depart="30.30" departLane="32425220#0_2" departPos="7.20" departPosLat="0.00" departSpeed="27.43" departDelay="0.00" arrival="145.40" arrivalLane="549232953#10_1" arrivalPos="967.06" arrivalPosLat="-0.00" arrivalSpeed="27.40" duration="115.10" routeLength="3153.47" waitingTime="0.00" waitingCount="0" stopTime="0.00" timeLoss="0.14" rerouteNo="1" devices="tripinfo_CalambatoStaRosa.4 routing_CalambatoStaRosa.4" vType="truck" speedFactor="0.99" vaporized=""/>
    <tripinfo id="CalambatoStaRosa.6" depart="35.30" departLane="32425220#0_2" departPos="5.10" departPosLat="0.00" departSpeed="27.76" departDelay="0.00" arrival="149.30" arrivalLane="549232953#10_1" arrivalPos="967.06" arrivalPosLat="-0.00" arrivalSpeed="27.66" duration="114.00" routeLength="3155.57" waitingTime="0.00" waitingCount="0" stopTime="0.00" timeLoss="0.26" rerouteNo="1" devices="tripinfo_CalambatoStaRosa.6 routing_CalambatoStaRosa.6" vType="car" speedFactor="1.00" vaporized=""/>
    <tripinfo id="StaRosatoNeighborhood.0" depart="31.00" departLane="-549232953#10_2" departPos="8.10" departPosLat="0.00" departSpeed="27.78" departDelay="0.00" arrival="150.20" arrivalLane="32425190#1_1" arrivalPos="142.43" arrivalPosLat="0.00" arrivalSpeed="13.86" duration="119.20" routeLength="2472.52" waitingTime="0.00" waitingCount="0" stopTime="0.00" timeLoss="22.30" rerouteNo="1" devices="tripinfo_StaRosatoNeighborhood.0 routing_StaRosatoNeighborhood.0" vType="jeep" speedFactor="1.00" vaporized=""/>
    <tripinfo id="StaRosatoCalamba.2" depart="8.90" departLane="-549232953#10_1" departPos="5.10" departPosLat="0.00" departSpeed="30.26" departDelay="0.00" arrival="157.00" arrivalLane="-32425220#0_1" arrivalPos="290.87" arrivalPosLat="-0.00" arrivalSpeed="30.18" duration="148.10" routeLength="3152.27" waitingTime="31.40" waitingCount="1" stopTime="0.00" timeLoss="43.84" rerouteNo="1" devices="tripinfo_StaRosatoCalamba.2 routing_StaRosatoCalamba.2" vType="car" speedFactor="1.09" vaporized=""/>
    <tripinfo id="StaRosatoCalamba.1" depart="6.90" departLane="-549232953#10_2" departPos="2.30" departPosLat="0.00" departSpeed="33.73" departDelay="0.00" arrival="158.20" arrivalLane="-32425220#0_1" arrivalPos="290.87" arrivalPosLat="-0.00" arrivalSpeed="32.22" duration="151.30" routeLength="3155.07" waitingTime="44.10" waitingCount="1" stopTime="0.00" timeLoss="57.74" rerouteNo="1" devices="tripinfo_StaRosatoCalamba.1 routing_StaRosatoCalamba.1" vType="tricycle" speedFactor="1.21" vaporized=""/>
    <tripinfo id="StaRosatoCalamba.5" depart="29.30" departLane="-549232953#10_1" departPos="7.20" departPosLat="0.00" departSpeed="27.63" departDelay="0.00" arrival="167.50" arrivalLane="-32425220#0_2" arrivalPos="290.87" arrivalPosLat="0.00" arrivalSpeed="27.62" duration="138.20" routeLength="3150.17" waitingTime="2.30" waitingCount="1" stopTime="0.00" timeLoss="24.14" rerouteNo="1" devices="tripinfo_StaRosatoCalamba.5 routing_StaRosatoCalamba.5" vType="truck" speedFactor="0.99" vaporized=""/>
    <tripinfo id="StaRosatoNeighborhood.1" depart="61.00" departLane="-549232953#10_1" departPos="2.30" departPosLat="0.00" departSpeed="31.90" departDelay="0.00" arrival="168.20" arrivalLane="32425190#1_1" arrivalPos="142.43" arrivalPosLat="0.00" arrivalSpeed="15.89" duration="107.20" routeLength="2478.32" waitingTime="0.00" waitingCount="0" stopTime="0.00" timeLoss="22.64" rerouteNo="1" devices="tripinfo_StaRosatoNeighborhood.1 routing_StaRosatoNeighborhood.1" vType="tricycle" speedFactor="1.15" vaporized=""/>
    <tripinfo id="StaRosatoCalamba.9" depart="48.10" departLane="-549232953#10_1" departPos="2.30" departPosLat="0.00" departSpeed="32.47" departDelay="0.00" arrival="168.70" arrivalLane="-32425220#0_2" arrivalPos="290.87" arrivalPosLat="-1.30" arrivalSpeed="32.45" duration="120.60" routeLength="3155.07" waitingTime="6.00" waitingCount="1" stopTime="0.00" timeLoss="23.39" rerouteNo="1" devices="tripinfo_StaRosatoCalamba.9 routing_StaRosatoCalamba.9" vType="motorcycle" speedFactor="1.17" vaporized=""/>
    <tripinfo id="StaRosatoCalamba.6" depart="41.40" departLane="-549232953#10_1" departPos="5.10" departPosLat="0.00" departSpeed="28.87" departDelay="0.00" arrival="168.80" arrivalLane="-32425220#0_2" arrivalPos="290.87" arrivalPosLat="0.59" arrivalSpeed="28.78" duration="127.40" routeLength="3152.27" waitingTime="0.00" waitingCount="0" stopTime="0.00" timeLoss="18.17" rerouteNo="1" devices="tripinfo_StaRosatoCalamba.6 routing_StaRosatoCalamba.6" vType="car" speedFactor="1.04" vaporized=""/>
    <tripinfo id="StaRosatoCalamba.0" depart="3.00" departLane="-549232953#10_1" departPos="7.20" departPosLat="0.00" departSpeed="24.77" departDelay="0.00" arrival="169.30" arrivalLane="-32425220#0_1" arrivalPos="290.87" arrivalPosLat="0.00" arrivalSpeed="24.76" duration="166.30" routeLength="3150.17" waitingTime="18.90" waitingCount="1" stopTime="0.00" timeLoss="39.15" rerouteNo="1" devices="tripinfo_StaRosatoCalamba.0 routing_StaRosatoCalamba.0" vType="truck" speedFactor="0.89" vaporized=""/>
    <tripinfo id="StaRosatoCalamba.4" depart="27.10" departLane="-549232953#10_2" departPos="5.10" departPosLat="0.00" departSpeed="29.41" departDelay="0.00" arrival="170.70" arrivalLane="-32425220#0_1" arrivalPos="290.87" arrivalPosLat="0.00" arrivalSpeed="27.45" duration="143.60" routeLength="3152.27" waitingTime="9.50" waitingCount="1" stopTime="0.00" timeLoss="36.35" rerouteNo="1" devices="tripinfo_StaRosatoCalamba.4 routing_StaRosatoCalamba.4" vType="car" speedFactor="1.06" vaporized=""/>
    <tripinfo id="StaRosatoCalamba.3" depart="16.40" departLane="-549232953#10_2" departPos="5.10" departPosLat="0.00" departSpeed="22.87" departDelay="0.00" arrival="173.80" arrivalLane="-32425220#0_1" arrivalPos="290.87" arrivalPosLat="0.00" arrivalSpeed="22.74" duration="157.40" routeLength="3152.27" waitingTime="0.00" waitingCount="0" stopTime="0.00" timeLoss="19.56" rerouteNo="1" devices="tripinfo_StaRosatoCalamba.3 routing_StaRosatoCalamba.3" vType="car" speedFactor="0.82" vaporized=""/>
    <tripinfo id="StaRosatoCalamba.11" depart="53.80" departLane="-549232953#10_1" departPos="5.10" departPosLat="0.00" departSpeed="27.72" departDelay="0.00" arrival="183.20" arrivalLane="-32425220#0_2" arrivalPos="290.87" arrivalPosLat="0.00" arrivalSpeed="27.62" duration="129.40" routeLength="3152.27" waitingTime="0.00" waitingCount="0" stopTime="0.00" timeLoss="15.64" rerouteNo="1" devices="tripinfo_StaRosatoCalamba.11 routing_StaRosatoCalamba.11" vType="car" speedFactor="1.00" vaporized=""/>
    <tripinfo id="StaRosatoCalamba.7" depart="44.80" departLane="-549232953#10_1" departPos="5.10" departPosLat="0.00" departSpeed="24.74" departDelay="0.00" arrival="184.90" arrivalLane="-32425220#0_1" arrivalPos="290.87" arrivalPosLat="0.00" arrivalSpeed="24.64" duration="140.10" routeLength="3152.27" waitingTime="3.40" waitingCount="1" stopTime="0.00" timeLoss="12.64" rerouteNo="1" devices="tripinfo_StaRosatoCalamba.7 routing_StaRosatoCalamba.7" vType="car" speedFactor="0.89" vaporized=""/>
    <tripinfo id="StaRosatoCalamba.10" depart="48.40" departLane="-549232953#10_2" departPos="2.30" departPosLat="0.00" departSpeed="27.86" departDelay="0.00" arrival="187.00" arrivalLane="-32425220#0_2" arrivalPos="290.87" arrivalPosLat="0.00" arrivalSpeed="27.79" duration="138.60" routeLength="3155.07" waitingTime="0.00" waitingCount="0" stopTime="0.00" timeLoss="25.33" rerouteNo="1" devices="tripinfo_StaRosatoCalamba.10 routing_StaRosatoCalamba.10" vType="tricycle" speedFactor="1.00" vaporized=""/>
    <tripinfo id="StaRosatoCalamba.14" depart="69.40" departLane="-549232953#10_1" departPos="2.30" departPosLat="0.00" departSpeed="28.64" departDelay="0.00" arrival="188.20" arrivalLane="-32425220#0_2" arrivalPos="290.87" arrivalPosLat="0.00" arrivalSpeed="28.58" duration="118.80" routeLength="3155.07" waitingTime="0.00" waitingCount="0" stopTime="0.00" timeLoss="8.55" rerouteNo="1" devices="tripinfo_StaRosatoCalamba.14 routing_StaRosatoCalamba.14" vType="tricycle" speedFactor="1.03" vaporized=""/>
    <tripinfo id="StaRosatoCalamba.8" depart="46.60" departLane="-549232953#10_2" departPos="5.10" departPosLat="0.00" departSpeed="25.03" departDelay="0.00" arrival="189.10" arrivalLane="-32425220#0_1" arrivalPos="290.87" arrivalPosLat="-0.00" arrivalSpeed="24.96" duration="142.50" routeLength="3152.27" waitingTime="0.00" waitingCount="0" stopTime="0.00" timeLoss="16.57" rerouteNo="1" devices="tripinfo_StaRosatoCalamba.8 routing_StaRosatoCalamba.8" vType="car" speedFactor="0.90" vaporized=""/>
    <tripinfo id="StaRosatoCalamba.12" depart="54.10" departLane="-549232953#10_2" departPos="5.10" departPosLat="0.00" departSpeed="27.92" departDelay="0.00" arrival="190.40" arrivalLane="-32425220#0_1" arrivalPos="290.87" arrivalPosLat="-0.00" arrivalSpeed="27.30" duration="136.30" routeLength="3152.27" waitingTime="0.00" waitingCount="0" stopTime="0.00" timeLoss="23.36" rerouteNo="1" devices="tripinfo_StaRosatoCalamba.12 routing_StaRosatoCalamba.12" vType="car" speedFactor="1.01" vaporized=""/>
    <tripinfo id="StaRosatoCalamba.13" depart="67.10" departLane="-549232953#10_2" departPos="5.10" departPosLat="0.00" departSpeed="27.11" departDelay="0.00" arrival="191.60" arrivalLane="-32425220#0_1" arrivalPos="290.87" arrivalPosLat="-0.00" arrivalSpeed="27.03" duration="124.50" routeLength="3152.27" waitingTime="0.00" waitingCount="0" stopTime="0.00" timeLoss="8.21" rerouteNo="1" devices="tripinfo_StaRosatoCalamba.13 routing_StaRosatoCalamba.13" vType="car" speedFactor="0.98" vaporized=""/>
    <tripinfo id="StaRosatoCalamba.15" depart="81.40" departLane="-549232953#10_2" departPos="2.30" departPosLat="0.00" departSpeed="27.27" departDelay="0.00" arrival="197.80" arrivalLane="-32425220#0_1" arrivalPos="290.87" arrivalPosLat="-0.00" arrivalSpeed="27.26" duration="116.40" routeLength="3155.07" waitingTime="0.00" waitingCount="0" stopTime="0.00" timeLoss="0.64" rerouteNo="1" devices="tripinfo_StaRosatoCalamba.15 routing_StaRosatoCalamba.15" vType="motorcycle" speedFactor="0.98" vaporized=""/>
    <tripinfo id="StaRosatoCalamba.16" depart="95.70" departLane="-549232953#10_2" departPos="2.30" departPosLat="0.00" departSpeed="29.89" departDelay="0.00" arrival="203.50" arrivalLane="-32425220#0_1" arrivalPos="290.87" arrivalPosLat="-0.00" arrivalSpeed="29.83" duration="107.80" routeLength="3155.07" waitingTime="0.00" waitingCount="0" stopTime="0.00" timeLoss="2.24" rerouteNo="1" devices="tripinfo_StaRosatoCalamba.16 routing_StaRosatoCalamba.16" vType="tricycle" speedFactor="1.08" vaporized=""/>
    <personinfo id="SavemoretoJeepPila.2" depart="96.00" type="ped" speedFactor="0.98" duration="119.90" waitingTime="4.70" timeLoss="16.55" traveltime="119.90">
        <walk depart="96.00" departPos="0.00" arrival="215.90" arrivalPos="25.71" duration="119.90" routeLength="140.94" timeLoss="16.55" maxSpeed="1.36" waitingTime="4.70"/>
    </personinfo>
    <personinfo id="SavemoretoJeepPila.1" depart="48.00" type="ped" speedFactor="1.03" duration="168.30" waitingTime="57.90" timeLoss="70.02" traveltime="168.30">
        <walk depart="48.00" departPos="0.00" arrival="216.30" arrivalPos="25.71" duration="168.30" routeLength="140.94" timeLoss="70.02" maxSpeed="1.43" waitingTime="57.90"/>
    </personinfo>
    <personinfo id="SavemoretoJeepPila.0" depart="0.00" type="ped" speedFactor="0.98" duration="217.30" waitingTime="102.50" timeLoss="114.27" traveltime="217.30">
        <walk depart="0.00" departPos="0.00" arrival="217.30" arrivalPos="25.71" duration="217.30" routeLength="140.94" timeLoss="114.27" maxSpeed="1.37" waitingTime="102.50"/>
    </personinfo>
    <personinfo id="InasaltoPalengke.1" depart="48.00" type="ped" speedFactor="1.06" duration="169.80" waitingTime="133.40" timeLoss="137.03" traveltime="169.80">
        <walk depart="48.00" departPos="0.00" arrival="217.80" arrivalPos="34.28" duration="169.80" routeLength="48.06" timeLoss="137.03" maxSpeed="1.47" waitingTime="133.40"/>
    </personinfo>
    <personinfo id="InasaltoPalengke.0" depart="0.00" type="ped" speedFactor="1.14" duration="218.00" waitingTime="183.40" timeLoss="187.55" traveltime="218.00">
        <walk depart="0.00" departPos="0.00" arrival="218.00" arrivalPos="34.28" duration="218.00" routeLength="48.06" timeLoss="187.55" maxSpeed="1.58" waitingTime="183.40"/>
    </personinfo>
    <tripinfo id="StaRosatoBanlic-Mamatid.0" depart="18.00" departLane="-549232953#10_1" departPos="5.10" departPosLat="0.00" departSpeed="30.31" departDelay="0.00" arrival="220.50" arrivalLane="-1346113028#0_1" arrivalPos="507.75" arrivalPosLat="0.00" arrivalSpeed="8.97" duration="202.50" routeLength="3135.81" waitingTime="20.00" waitingCount="1" stopTime="0.00" timeLoss="32.03" rerouteNo="1" devices="tripinfo_StaRosatoBanlic-Mamatid.0 routing_StaRosatoBanlic-Mamatid.0" vType="car" speedFactor="1.09" vaporized=""/>
    <personinfo id="InasaltoPalengke.3" depart="144.00" type="ped" speedFactor="1.03" duration="77.20" waitingTime="39.60" timeLoss="43.66" traveltime="77.20">
        <walk depart="144.00" departPos="0.00" arrival="221.20" arrivalPos="34.28" duration="77.20" routeLength="48.06" timeLoss="43.66" maxSpeed="1.43" waitingTime="39.60"/>
    </personinfo>
    <personinfo id="PalengketoInasal.1" depart="48.00" type="ped" speedFactor="1.10" duration="177.90" waitingTime="135.10" timeLoss="139.50" traveltime="177.90">
        <walk depart="48.00" departPos="0.00" arrival="225.90" arrivalPos="44.65" duration="177.90" routeLength="58.43" timeLoss="139.50" maxSpeed="1.52" waitingTime="135.10"/>
    </personinfo>
    <personinfo id="InasaltoSavemore.0" depart="0.00" type="ped" speedFactor="1.18" duration="225.90" waitingTime="183.20" timeLoss="187.69" traveltime="225.90">
        <walk depart="0.00" departPos="0.00" arrival="225.90" arrivalPos="44.65" duration="225.90" routeLength="62.53" timeLoss="187.69" maxSpeed="1.64" waitingTime="183.20"/>
    </personinfo>
    <personinfo id="InasaltoPalengke.2" depart="96.00" type="ped" speedFactor="0.88" duration="130.30" waitingTime="86.30" timeLoss="91.04" traveltime="130.30">
        <walk depart="96.00" departPos="0.00" arrival="226.30" arrivalPos="34.28" duration="130.30" routeLength="48.06" timeLoss="91.04" maxSpeed="1.22" waitingTime="86.30"/>
    </personinfo>
    <personinfo id="PalengketoInasal.2" depart="96.00" type="ped" speedFactor="1.08" duration="131.40" waitingTime="87.90" timeLoss="92.44" traveltime="131.40">
        <walk depart="96.00" departPos="0.00" arrival="227.40" arrivalPos="44.65" duration="131.40" routeLength="58.43" timeLoss="92.44" maxSpeed="1.50" waitingTime="87.90"/>
    </personinfo>
    <personinfo id="InasaltoSavemore.1" depart="48.00" type="ped" speedFactor="1.13" duration="181.10" waitingTime="136.30" timeLoss="141.12" traveltime="181.10">
        <walk depart="48.00" departPos="0.00" arrival="229.10" arrivalPos="44.65" duration="181.10" routeLength="62.53" timeLoss="141.12" maxSpeed="1.56" waitingTime="136.30"/>
    </personinfo>
    <personinfo id="SavemoretoInasal.2" depart="96.00" type="ped" speedFactor="1.07" duration="136.00" waitingTime="22.20" timeLoss="93.98" traveltime="136.00">
        <walk depart="96.00" departPos="0.00" arrival="232.00" arrivalPos="44.65" duration="136.00" routeLength="62.53" timeLoss="93.98" maxSpeed="1.49" waitingTime="22.20"/>
    </personinfo>
    <personinfo id="InasaltoSavemore.2" depart="96.00" type="ped" speedFactor="1.02" duration="137.00" waitingTime="87.70" timeLoss="92.98" traveltime="137.00">
        <walk depart="96.00" departPos="0.00" arrival="233.00" arrivalPos="44.65" duration="137.00" routeLength="62.53" timeLoss="92.98" maxSpeed="1.42" waitingTime="87.70"/>
    </personinfo>
    <tripinfo id="Banlic-MamatidtoStaRosa.0" depart="11.80" departLane="1346113028#0_1" departPos="5.10" departPosLat="0.00" departSpeed="7.11" departDelay="0.00" arrival="233.30" arrivalLane="549232953#10_1" arrivalPos="967.06" arrivalPosLat="-0.00" arrivalSpeed="23.70" duration="221.50" routeLength="3125.43" waitingTime="0.00" waitingCount="0" stopTime="0.00" timeLoss="5.03" rerouteNo="1" devices="tripinfo_Banlic-MamatidtoStaRosa.0 routing_Banlic-MamatidtoStaRosa.0" vType="car" speedFactor="0.85" vaporized=""/>
    <personinfo id="InasaltoPalengke.4" depart="192.00" type="ped" speedFactor="0.97" duration="41.60" waitingTime="2.10" timeLoss="6.02" traveltime="41.60">
        <walk depart="192.00" departPos="0.00" arrival="233.60" arrivalPos="34.28" duration="41.60" routeLength="48.06" timeLoss="6.02" maxSpeed="1.35" waitingTime="2.10"/>
    </personinfo>
    <personinfo id="InasaltoJeepPila.1" depart="48.00" type="ped" speedFactor="1.10" duration="185.60" waitingTime="136.70" timeLoss="141.87" traveltime="185.60">
        <walk depart="48.00" departPos="0.00" arrival="233.60" arrivalPos="25.71" duration="185.60" routeLength="67.08" timeLoss="141.87" maxSpeed="1.53" waitingTime="136.70"/>
    </personinfo>
    <personinfo id="SavemoretoPalengke.2" depart="96.00" type="ped" speedFactor="1.01" duration="138.00" waitingTime="16.80" timeLoss="29.93" traveltime="138.00">
        <walk depart="96.00" departPos="0.00" arrival="234.00" arrivalPos="34.28" duration="138.00" routeLength="151.65" timeLoss="29.93" maxSpeed="1.40" waitingTime="16.80"/>
    </personinfo>
    <personinfo id="SavemoretoPalengke.0" depart="0.00" type="ped" speedFactor="1.06" duration="234.30" waitingTime="111.50" timeLoss="131.29" traveltime="234.30">
        <walk depart="0.00" departPos="0.00" arrival="234.30" arrivalPos="34.28" duration="234.30" routeLength="151.65" timeLoss="131.29" maxSpeed="1.47" waitingTime="111.50"/>
    </personinfo>
    <personinfo id="InasaltoSavemore.3" depart="144.00" type="ped" speedFactor="0.99" duration="90.70" waitingTime="40.30" timeLoss="45.36" traveltime="90.70">
        <walk depart="144.00" departPos="0.00" arrival="234.70" arrivalPos="44.65" duration="90.70" routeLength="62.53" timeLoss="45.36" maxSpeed="1.38" waitingTime="40.30"/>
    </personinfo>
    <personinfo id="InasaltoJeepPila.0" depart="0.00" type="ped" speedFactor="1.11" duration="234.90" waitingTime="186.10" timeLoss="191.55" traveltime="234.90">
        <walk depart="0.00" departPos="0.00" arrival="234.90" arrivalPos="25.71" duration="234.90" routeLength="67.08" timeLoss="191.55" maxSpeed="1.55" waitingTime="186.10"/>
    </personinfo>
    <personinfo id="SavemoretoInasal.1" depart="48.00" type="ped" speedFactor="1.00" duration="186.90" waitingTime="65.80" timeLoss="142.08" traveltime="186.90">
        <walk depart="48.00" departPos="0.00" arrival="234.90" arrivalPos="44.65" duration="186.90" routeLength="62.53" timeLoss="142.08" maxSpeed="1.40" waitingTime="65.80"/>
    </personinfo>
    <personinfo id="PalengketoSavemore.1" depart="48.00" type="ped" speedFactor="1.24" duration="187.40" waitingTime="136.20" timeLoss="145.25" traveltime="187.40">
        <walk depart="48.00" departPos="0.00" arrival="235.40" arrivalPos="44.65" duration="187.40" routeLength="72.73" timeLoss="145.25" maxSpeed="1.73" waitingTime="136.20"/>
    </personinfo>
    <personinfo id="JeepPilatoSavemore.0" depart="0.00" type="ped" speedFactor="1.07" duration="235.40" waitingTime="182.40" timeLoss="187.77" traveltime="235.40">
        <walk depart="0.00" departPos="0.00" arrival="235.40" arrivalPos="44.65" duration="235.40" routeLength="70.59" timeLoss="187.77" maxSpeed="1.48" waitingTime="182.40"/>
    </personinfo>
    <tripinfo id="StaRosatoNeighborhood.2" depart="127.10" departLane="-549232953#10_2" departPos="2.30" departPosLat="0.00" departSpeed="28.12" departDelay="0.00" arrival="235.70" arrivalLane="32425190#1_1" arrivalPos="142.43" arrivalPosLat="-0.00" arrivalSpeed="13.98" duration="108.60" routeLength="2478.32" waitingTime="2.00" waitingCount="1" stopTime="0.00" timeLoss="12.65" rerouteNo="1" devices="tripinfo_StaRosatoNeighborhood.2 routing_StaRosatoNeighborhood.2" vType="tricycle" speedFactor="1.01" vaporized=""/>
    <personinfo id="SavemoretoPalengke.1" depart="48.00" type="ped" speedFactor="0.94" duration="188.50" waitingTime="58.80" timeLoss="72.13" traveltime="188.50">
        <walk depart="48.00" departPos="0.00" arrival="236.50" arrivalPos="34.28" duration="188.50" routeLength="151.65" timeLoss="72.13" maxSpeed="1.30" waitingTime="58.80"/>
    </personinfo>
    <personinfo id="SavemoretoInasal.0" depart="0.00" type="ped" speedFactor="0.96" duration="237.40" waitingTime="110.70" timeLoss="190.65" traveltime="237.40">
        <walk depart="0.00" departPos="0.00" arrival="237.40" arrivalPos="44.65" duration="237.40" routeLength="62.53" timeLoss="190.65" maxSpeed="1.34" waitingTime="110.70"/>
    </personinfo>
    <personinfo id="PalengketoInasal.3" depart="144.00" type="ped" speedFactor="0.92" duration="95.50" waitingTime="40.90" timeLoss="49.93" traveltime="95.50">
        <walk depart="144.00" departPos="0.00" arrival="239.50" arrivalPos="44.65" duration="95.50" routeLength="58.43" timeLoss="49.93" maxSpeed="1.28" waitingTime="40.90"/>
    </personinfo>
    <personinfo id="PalengketoSavemore.2" depart="96.00" type="ped" speedFactor="1.11" duration="144.30" waitingTime="89.20" timeLoss="97.11" traveltime="144.30">
        <walk depart="96.00" departPos="0.00" arrival="240.30" arrivalPos="44.65" duration="144.30" routeLength="72.73" timeLoss="97.11" maxSpeed="1.54" waitingTime="89.20"/>
    </personinfo>
    <personinfo id="PalengketoInasal.0" depart="0.00" type="ped" speedFactor="0.81" duration="240.50" waitingTime="182.90" timeLoss="188.65" traveltime="240.50">
        <walk depart="0.00" departPos="0.00" arrival="240.50" arrivalPos="44.65" duration="240.50" routeLength="58.43" timeLoss="188.65" maxSpeed="1.13" waitingTime="182.90"/>
    </personinfo>
    <personinfo id="JeepPilatoSavemore.3" depart="144.00" type="ped" speedFactor="0.99" duration="96.70" waitingTime="39.00" timeLoss="45.14" traveltime="96.70">
        <walk depart="144.00" departPos="0.00" arrival="240.70" arrivalPos="44.65" duration="96.70" routeLength="70.59" timeLoss="45.14" maxSpeed="1.37" waitingTime="39.00"/>
    </personinfo>
    <personinfo id="PalengketoSavemore.3" depart="144.00" type="ped" speedFactor="1.09" duration="97.00" waitingTime="41.40" timeLoss="49.04" traveltime="97.00">
        <walk depart="144.00" departPos="0.00" arrival="241.00" arrivalPos="44.65" duration="97.00" routeLength="72.73" timeLoss="49.04" maxSpeed="1.52" waitingTime="41.40"/>
    </personinfo>
    <personinfo id="JeepPilatoSavemore.1" depart="48.00" type="ped" speedFactor="0.89" duration="198.90" waitingTime="135.00" timeLoss="141.75" traveltime="198.90">
        <walk depart="48.00" departPos="0.00" arrival="246.90" arrivalPos="44.65" duration="198.90" routeLength="70.59" timeLoss="141.75" maxSpeed="1.24" waitingTime="135.00"/>
    </personinfo>
    <personinfo id="PalengketoInasal.4" depart="192.00" type="ped" speedFactor="0.84" duration="55.30" waitingTime="0.00" timeLoss="5.43" traveltime="55.30">
        <walk depart="192.00" departPos="0.00" arrival="247.30" arrivalPos="44.65" duration="55.30" routeLength="58.43" timeLoss="5.43" maxSpeed="1.17" waitingTime="0.00"/>
    </personinfo>
    <personinfo id="PalengketoSavemore.0" depart="0.00" type="ped" speedFactor="0.97" duration="247.30" waitingTime="184.30" timeLoss="193.26" traveltime="247.30">
        <walk depart="0.00" departPos="0.00" arrival="247.30" arrivalPos="44.65" duration="247.30" routeLength="72.73" timeLoss="193.26" maxSpeed="1.35" waitingTime="184.30"/>
    </personinfo>
    <personinfo id="JeepPilatoSavemore.2" depart="96.00" type="ped" speedFactor="0.98" duration="151.60" waitingTime="91.20" timeLoss="99.48" traveltime="151.60">
        <walk depart="96.00" departPos="0.00" arrival="247.60" arrivalPos="44.65" duration="151.60" routeLength="70.59" timeLoss="99.48" maxSpeed="1.35" waitingTime="91.20"/>
    </personinfo>
    <personinfo id="InasaltoSavemore.4" depart="192.00" type="ped" speedFactor="0.99" duration="56.10" waitingTime="3.30" timeLoss="10.53" traveltime="56.10">
        <walk depart="192.00" departPos="0.00" arrival="248.10" arrivalPos="44.65" duration="56.10" routeLength="62.53" timeLoss="10.53" maxSpeed="1.37" waitingTime="3.30"/>
    </personinfo>
    <personinfo id="JeepPilatoInasal.1" depart="48.00" type="ped" speedFactor="0.99" duration="204.50" waitingTime="134.90" timeLoss="142.04" traveltime="204.50">
        <walk depart="48.00" departPos="0.00" arrival="252.50" arrivalPos="44.65" duration="204.50" routeLength="86.02" timeLoss="142.04" maxSpeed="1.38" waitingTime="134.90"/>
    </personinfo>
    <personinfo id="PalengketoSavemore.4" depart="192.00" type="ped" speedFactor="0.99" duration="60.50" waitingTime="1.70" timeLoss="7.86" traveltime="60.50">
        <walk depart="192.00" departPos="0.00" arrival="252.50" arrivalPos="44.65" duration="60.50" routeLength="72.73" timeLoss="7.86" maxSpeed="1.38" waitingTime="1.70"/>
    </personinfo>