<?xml version="1.0" encoding="UTF-8"?>

<!-- generated on 2026-02-24 13:00:14 by Eclipse SUMO sumo Version 1.24.0
<sumoConfiguration xmlns:xsi="http://www.w3.org/2001/XMLSchema-instance" xsi:noNamespaceSchemaLocation="http://sumo.dlr.de/xsd/sumoConfiguration.xsd">

    <input>
        <net-file value="Banlic-Mamatid_traci/network/banlic-mamatid_signalized.net.xml"/>
        <route-files value="Banlic-Mamatid_traci/demand/flows_slow_traffic.rou.xml"/>
        <additional-files value="Banlic-Mamatid_traci/additionals/banlic-mamatid.poly.xml,Banlic-Mamatid_traci/ additionals/banlic-mamatid.add.xml"/>
    </input>

    <output>
        <tripinfo-output value="Banlic-Mamatid_traci/output_A2C/test_slow_traffic_trips.xml"/>
        <statistic-output value="Banlic-Mamatid_traci/output_A2C/test_slow_traffic_stats.xml"/>
    </output>

    <time>
        <begin value="0"/>
        <end value="10800"/>
        <step-length value="0.1"/>
    </time>

    <processing>
        <lateral-resolution value="0.1"/>
        <collision.action value="none"/>
        <collision.check-junctions value="false"/>
        <collision.mingap-factor value="0"/>
    </processing>

    <report>
        <no-warnings value="true"/>
    </report>

    <traci_server>
        <remote-port value="8814"/>
    </traci_server>

    <gui_only>
        <delay value="0"/>
    </gui_only>

</sumoConfiguration>
-->

<tripinfos xmlns:xsi="http://www.w3.org/2001/XMLSchema-instance" xsi:noNamespaceSchemaLocation="http://sumo.dlr.de/xsd/tripinfo_file.xsd">
    <tripinfo id="NeighborhoodtoCalamba.0" depart="15.30" departLane="-32425190#1_1" departPos="5.10" departPosLat="0.00" departSpeed="14.32" departDelay="0.00" arrival="64.50" arrivalLane="-32425220#0_2" arrivalPos="290.87" arrivalPosLat="0.00" arrivalSpeed="28.59" duration="49.20" routeLength="1056.50" waitingTime="0.00" waitingCount="0" stopTime="0.00" timeLoss="4.77" rerouteNo="1" devices="tripinfo_NeighborhoodtoCalamba.0 routing_NeighborhoodtoCalamba.0" vType="car" speedFactor="1.03" vaporized=""/>
    <tripinfo id="NeighborhoodtoStaRosa.0" depart="1.20" departLane="-32425190#1_1" departPos="5.10" departPosLat="0.00" departSpeed="14.02" departDelay="0.00" arrival="101.50" arrivalLane="549232953#10_1" arrivalPos="967.06" arrivalPosLat="0.00" arrivalSpeed="27.96" duration="100.30" routeLength="2483.86" waitingTime="0.00" waitingCount="0" stopTime="0.00" timeLoss="3.65" rerouteNo="1" devices="tripinfo_NeighborhoodtoStaRosa.0 routing_NeighborhoodtoStaRosa.0" vType="car" speedFactor="1.01" vaporized=""/>
    <tripinfo id="StaRosatoCalamba.3" depart="16.40" departLane="-549232953#10_2" departPos="5.10" departPosLat="0.00" departSpeed="30.77" departDelay="0.00" arrival="121.80" arrivalLane="-32425220#0_2" arrivalPos="290.87" arrivalPosLat="0.00" arrivalSpeed="30.73" duration="105.40" routeLength="3152.27" waitingTime="0.00" waitingCount="0" stopTime="0.00" timeLoss="2.90" rerouteNo="1" devices="tripinfo_StaRosatoCalamba.3 routing_StaRosatoCalamba.3" vType="car" speedFactor="1.11" vaporized=""/>
    <tripinfo id="StaRosatoCalamba.0" depart="3.00" departLane="-549232953#10_1" departPos="2.30" departPosLat="0.00" departSpeed="25.78" departDelay="0.00" arrival="128.10" arrivalLane="-32425220#0_2" arrivalPos="290.87" arrivalPosLat="0.00" arrivalSpeed="25.76" duration="125.10" routeLength="3155.07" waitingTime="0.00" waitingCount="0" stopTime="0.00" timeLoss="2.63" rerouteNo="1" devices="tripinfo_StaRosatoCalamba.0 routing_StaRosatoCalamba.0" vType="motorcycle" speedFactor="0.93" vaporized=""/>
    <tripinfo id="CalambatoStaRosa.1" depart="17.30" departLane="32425220#0_2" departPos="8.10" departPosLat="0.00" departSpeed="27.78" departDelay="0.00" arrival="131.50" arrivalLane="549232953#10_2" arrivalPos="967.06" arrivalPosLat="0.00" arrivalSpeed="27.73" duration="114.20" routeLength="3152.57" waitingTime="0.00" waitingCount="0" stopTime="0.00" timeLoss="0.65" rerouteNo="1" devices="tripinfo_CalambatoStaRosa.1 routing_CalambatoStaRosa.1" vType="jeep" speedFactor="1.00" vaporized=""/>
    <tripinfo id="CalambatoStaRosa.0" depart="6.60" departLane="32425220#0_1" departPos="7.20" departPosLat="0.00" departSpeed="25.75" departDelay="0.00" arrival="132.20" arrivalLane="549232953#10_1" arrivalPos="967.06" arrivalPosLat="0.00" arrivalSpeed="25.73" duration="125.60" routeLength="3153.47" waitingTime="0.00" waitingCount="0" stopTime="0.00" timeLoss="3.11" rerouteNo="1" devices="tripinfo_CalambatoStaRosa.0 routing_CalambatoStaRosa.0" vType="truck" speedFactor="0.93" vaporized=""/>
    <tripinfo id="StaRosatoCalamba.1" depart="6.90" departLane="-549232953#10_2" departPos="7.20" departPosLat="0.00" departSpeed="29.57" departDelay="0.00" arrival="135.20" arrivalLane="-32425220#0_1" arrivalPos="290.87" arrivalPosLat="-0.00" arrivalSpeed="29.54" duration="128.30" routeLength="3150.17" waitingTime="3.00" waitingCount="1" stopTime="0.00" timeLoss="21.69" rerouteNo="1" devices="tripinfo_StaRosatoCalamba.1 routing_StaRosatoCalamba.1" vType="truck" speedFactor="1.06" vaporized=""/>
    <tripinfo id="StaRosatoCalamba.2" depart="8.90" departLane="-549232953#10_1" departPos="2.30" departPosLat="0.00" departSpeed="25.97" departDelay="0.00" arrival="138.80" arrivalLane="-32425220#0_1" arrivalPos="290.87" arrivalPosLat="0.00" arrivalSpeed="25.96" duration="129.90" routeLength="3155.07" waitingTime="0.00" waitingCount="0" stopTime="0.00" timeLoss="8.38" rerouteNo="1" devices="tripinfo_StaRosatoCalamba.2 routing_StaRosatoCalamba.2" vType="tricycle" speedFactor="0.94" vaporized=""/>
    <tripinfo id="StaRosatoCalamba.6" depart="48.10" departLane="-549232953#10_1" departPos="5.10" departPosLat="0.00" departSpeed="31.49" departDelay="0.00" arrival="149.00" arrivalLane="-32425220#0_2" arrivalPos="290.87" arrivalPosLat="0.00" arrivalSpeed="31.46" duration="100.90" routeLength="3152.27" waitingTime="0.00" waitingCount="0" stopTime="0.00" timeLoss="0.73" rerouteNo="1" devices="tripinfo_StaRosatoCalamba.6 routing_StaRosatoCalamba.6" vType="car" speedFactor="1.13" vaporized=""/>
    <tripinfo id="StaRosatoCalamba.4" depart="41.40" departLane="-549232953#10_2" departPos="7.20" departPosLat="0.00" departSpeed="28.95" departDelay="0.00" arrival="150.40" arrivalLane="-32425220#0_1" arrivalPos="290.87" arrivalPosLat="-0.00" arrivalSpeed="28.89" duration="109.00" routeLength="3150.17" waitingTime="0.00" waitingCount="0" stopTime="0.00" timeLoss="0.13" rerouteNo="1" devices="tripinfo_StaRosatoCalamba.4 routing_StaRosatoCalamba.4" vType="truck" speedFactor="1.04" vaporized=""/>
    <personinfo id="SavemoretoJeepPila.1" depart="72.00" type="ped" speedFactor="1.17" duration="97.50" waitingTime="0.60" timeLoss="10.69" traveltime="97.50">
        <walk depart="72.00" departPos="0.00" arrival="169.50" arrivalPos="25.71" duration="97.50" routeLength="140.94" timeLoss="10.69" maxSpeed="1.62" waitingTime="0.60"/>
    </personinfo>
    <personinfo id="InasaltoPalengke.0" depart="0.00" type="ped" speedFactor="1.07" duration="174.20" waitingTime="137.70" timeLoss="141.71" traveltime="174.20">
        <walk depart="0.00" departPos="0.00" arrival="174.20" arrivalPos="34.28" duration="174.20" routeLength="48.06" timeLoss="141.71" maxSpeed="1.48" waitingTime="137.70"/>
    </personinfo>
    <personinfo id="SavemoretoJeepPila.0" depart="0.00" type="ped" speedFactor="0.85" duration="174.20" waitingTime="42.60" timeLoss="55.50" traveltime="174.20">
        <walk depart="0.00" departPos="0.00" arrival="174.20" arrivalPos="25.71" duration="174.20" routeLength="140.94" timeLoss="55.50" maxSpeed="1.19" waitingTime="42.60"/>
    </personinfo>
    <personinfo id="InasaltoPalengke.1" depart="72.00" type="ped" speedFactor="0.92" duration="107.10" waitingTime="64.80" timeLoss="69.39" traveltime="107.10">
        <walk depart="72.00" departPos="0.00" arrival="179.10" arrivalPos="34.28" duration="107.10" routeLength="48.06" timeLoss="69.39" maxSpeed="1.27" waitingTime="64.80"/>
    </personinfo>
    <personinfo id="InasaltoSavemore.0" depart="0.00" type="ped" speedFactor="1.07" duration="185.10" waitingTime="138.00" timeLoss="142.90" traveltime="185.10">
        <walk depart="0.00" departPos="0.00" arrival="185.10" arrivalPos="44.65" duration="185.10" routeLength="62.53" timeLoss="142.90" maxSpeed="1.48" waitingTime="138.00"/>
    </personinfo>
    <personinfo id="SavemoretoInasal.0" depart="0.00" type="ped" speedFactor="1.06" duration="185.40" waitingTime="70.70" timeLoss="143.13" traveltime="185.40">
        <walk depart="0.00" departPos="0.00" arrival="185.40" arrivalPos="44.65" duration="185.40" routeLength="62.53" timeLoss="143.13" maxSpeed="1.48" waitingTime="70.70"/>
    </personinfo>
    <personinfo id="InasaltoPalengke.2" depart="144.00" type="ped" speedFactor="0.93" duration="42.50" waitingTime="1.10" timeLoss="5.17" traveltime="42.50">
        <walk depart="144.00" departPos="0.00" arrival="186.50" arrivalPos="34.28" duration="42.50" routeLength="48.06" timeLoss="5.17" maxSpeed="1.29" waitingTime="1.10"/>
    </personinfo>
    <tripinfo id="CalambatoNeighborhood.0" depart="22.80" departLane="32425220#0_1" departPos="12.10" departPosLat="0.00" departSpeed="27.78" departDelay="0.00" arrival="188.20" arrivalLane="32425190#1_1" arrivalPos="142.43" arrivalPosLat="0.00" arrivalSpeed="13.88" duration="165.40" routeLength="1063.05" waitingTime="108.50" waitingCount="1" stopTime="0.00" timeLoss="118.90" rerouteNo="1" devices="tripinfo_CalambatoNeighborhood.0 routing_CalambatoNeighborhood.0" vType="bus" speedFactor="1.00" vaporized=""/>
    <personinfo id="PalengketoInasal.1" depart="72.00" type="ped" speedFactor="0.88" duration="119.20" waitingTime="65.90" timeLoss="71.28" traveltime="119.20">
        <walk depart="72.00" departPos="0.00" arrival="191.20" arrivalPos="44.65" duration="119.20" routeLength="58.43" timeLoss="71.28" maxSpeed="1.22" waitingTime="65.90"/>
    </personinfo>
    <personinfo id="PalengketoInasal.0" depart="0.00" type="ped" speedFactor="0.93" duration="191.60" waitingTime="139.00" timeLoss="146.46" traveltime="191.60">
        <walk depart="0.00" departPos="0.00" arrival="191.60" arrivalPos="44.65" duration="191.60" routeLength="58.43" timeLoss="146.46" maxSpeed="1.29" waitingTime="139.00"/>
    </personinfo>
    <personinfo id="PalengketoInasal.2" depart="144.00" type="ped" speedFactor="0.99" duration="48.10" waitingTime="0.00" timeLoss="5.50" traveltime="48.10">
        <walk depart="144.00" departPos="0.00" arrival="192.10" arrivalPos="44.65" duration="48.10" routeLength="58.43" timeLoss="5.50" maxSpeed="1.37" waitingTime="0.00"/>
    </personinfo>
    <tripinfo id="CalambatoNeighborhood.1" depart="87.10" departLane="32425220#0_2" departPos="2.30" departPosLat="0.00" departSpeed="26.94" departDelay="0.00" arrival="192.30" arrivalLane="32425190#1_1" arrivalPos="142.43" arrivalPosLat="0.00" arrivalSpeed="13.36" duration="105.20" routeLength="1072.85" waitingTime="43.10" waitingCount="1" stopTime="0.00" timeLoss="56.86" rerouteNo="1" devices="tripinfo_CalambatoNeighborhood.1 routing_CalambatoNeighborhood.1" vType="motorcycle" speedFactor="0.97" vaporized=""/>
    <personinfo id="JeepPilatoSavemore.0" depart="0.00" type="ped" speedFactor="1.07" duration="193.60" waitingTime="137.80" timeLoss="146.11" traveltime="193.60">
        <walk depart="0.00" departPos="0.00" arrival="193.60" arrivalPos="44.65" duration="193.60" routeLength="70.59" timeLoss="146.11" maxSpeed="1.49" waitingTime="137.80"/>
    </personinfo>
    <personinfo id="InasaltoSavemore.1" depart="72.00" type="ped" speedFactor="0.89" duration="122.20" waitingTime="65.80" timeLoss="71.57" traveltime="122.20">
        <walk depart="72.00" departPos="0.00" arrival="194.20" arrivalPos="44.65" duration="122.20" routeLength="62.53" timeLoss="71.57" maxSpeed="1.24" waitingTime="65.80"/>
    </personinfo>
    <personinfo id="JeepPilatoSavemore.1" depart="72.00" type="ped" speedFactor="0.94" duration="125.10" waitingTime="64.80" timeLoss="70.87" traveltime="125.10">
        <walk depart="72.00" departPos="0.00" arrival="197.10" arrivalPos="44.65" duration="125.10" routeLength="70.59" timeLoss="70.87" maxSpeed="1.30" waitingTime="64.80"/>
    </personinfo>
    <personinfo id="InasaltoSavemore.2" depart="144.00" type="ped" speedFactor="0.98" duration="53.60" waitingTime="1.40" timeLoss="7.43" traveltime="53.60">
        <walk depart="144.00" departPos="0.00" arrival="197.60" arrivalPos="44.65" duration="53.60" routeLength="62.53" timeLoss="7.43" maxSpeed="1.35" waitingTime="1.40"/>
    </personinfo>
    <personinfo id="PalengketoSavemore.1" depart="72.00" type="ped" speedFactor="1.00" duration="126.00" waitingTime="66.00" timeLoss="73.87" traveltime="126.00">
        <walk depart="72.00" departPos="0.00" arrival="198.00" arrivalPos="44.65" duration="126.00" routeLength="72.73" timeLoss="73.87" maxSpeed="1.40" waitingTime="66.00"/>
    </personinfo>
    <personinfo id="PalengketoSavemore.0" depart="0.00" type="ped" speedFactor="0.96" duration="198.40" waitingTime="138.00" timeLoss="144.02" traveltime="198.40">
        <walk depart="0.00" departPos="0.00" arrival="198.40" arrivalPos="44.65" duration="198.40" routeLength="72.73" timeLoss="144.02" maxSpeed="1.34" waitingTime="138.00"/>
    </personinfo>
    <personinfo id="SavemoretoInasal.1" depart="72.00" type="ped" speedFactor="0.96" duration="127.00" waitingTime="0.00" timeLoss="79.94" traveltime="127.00">
        <walk depart="72.00" departPos="0.00" arrival="199.00" arrivalPos="44.65" duration="127.00" routeLength="62.53" timeLoss="79.94" maxSpeed="1.33" waitingTime="0.00"/>
    </personinfo>
    <personinfo id="JeepPilatoSavemore.2" depart="144.00" type="ped" speedFactor="0.98" duration="60.50" waitingTime="2.60" timeLoss="8.68" traveltime="60.50">
        <walk depart="144.00" departPos="0.00" arrival="204.50" arrivalPos="44.65" duration="60.50" routeLength="70.59" timeLoss="8.68" maxSpeed="1.36" waitingTime="2.60"/>
    </personinfo>
    <tripinfo id="Banlic-MamatidtoCalamba.0" depart="13.90" departLane="1346113028#0_1" departPos="5.10" departPosLat="0.00" departSpeed="9.48" departDelay="0.00" arrival="222.00" arrivalLane="-32425220#0_1" arrivalPos="290.87" arrivalPosLat="0.00" arrivalSpeed="31.62" duration="208.10" routeLength="1742.53" waitingTime="80.80" waitingCount="1" stopTime="0.00" timeLoss="89.04" rerouteNo="1" devices="tripinfo_Banlic-MamatidtoCalamba.0 routing_Banlic-MamatidtoCalamba.0" vType="car" speedFactor="1.14" vaporized=""/>
    <tripinfo id="StaRosatoBanlic-Mamatid.0" depart="18.00" departLane="-549232953#10_1" departPos="2.30" departPosLat="0.00" departSpeed="25.01" departDelay="0.00" arrival="226.20" arrivalLane="-1346113028#0_1" arrivalPos="507.75" arrivalPosLat="0.00" arrivalSpeed="7.47" duration="208.20" routeLength="3138.61" waitingTime="0.00" waitingCount="0" stopTime="0.00" timeLoss="1.48" rerouteNo="1" devices="tripinfo_StaRosatoBanlic-Mamatid.0 routing_StaRosatoBanlic-Mamatid.0" vType="tricycle" speedFactor="0.90" vaporized=""/>
    <tripinfo id="StaRosatoBanlic-Mamatid.1" depart="42.70" departLane="-549232953#10_1" departPos="8.10" departPosLat="0.00" departSpeed="27.78" departDelay="0.00" arrival="231.20" arrivalLane="-1346113028#0_1" arrivalPos="507.75" arrivalPosLat="0.00" arrivalSpeed="8.29" duration="188.50" routeLength="3132.81" waitingTime="0.00" waitingCount="0" stopTime="0.00" timeLoss="2.60" rerouteNo="1" devices="tripinfo_StaRosatoBanlic-Mamatid.1 routing_StaRosatoBanlic-Mamatid.1" vType="jeep" speedFactor="1.00" vaporized=""/>
    <tripinfo id="Banlic-MamatidtoCalamba.1" depart="62.00" departLane="1346113028#0_1" departPos="2.30" departPosLat="0.00" departSpeed="7.93" departDelay="0.00" arrival="231.30" arrivalLane="-32425220#0_1" arrivalPos="290.87" arrivalPosLat="0.00" arrivalSpeed="26.45" duration="169.30" routeLength="1745.33" waitingTime="0.00" waitingCount="0" stopTime="0.00" timeLoss="26.62" rerouteNo="1" devices="tripinfo_Banlic-MamatidtoCalamba.1 routing_Banlic-MamatidtoCalamba.1" vType="tricycle" speedFactor="0.95" vaporized=""/>
    <tripinfo id="StaRosatoNeighborhood.0" depart="127.10" departLane="-549232953#10_1" departPos="5.10" departPosLat="0.00" departSpeed="34.31" departDelay="0.00" arrival="246.30" arrivalLane="32425190#1_1" arrivalPos="142.43" arrivalPosLat="0.00" arrivalSpeed="17.03" duration="119.20" routeLength="2475.52" waitingTime="14.80" waitingCount="1" stopTime="0.00" timeLoss="40.64" rerouteNo="1" devices="tripinfo_StaRosatoNeighborhood.0 routing_StaRosatoNeighborhood.0" vType="car" speedFactor="1.24" vaporized=""/>
    <tripinfo id="NeighborhoodtoStaRosa.2" depart="117.10" departLane="-32425190#1_1" departPos="5.10" departPosLat="0.00" departSpeed="14.39" departDelay="0.00" arrival="250.90" arrivalLane="549232953#10_1" arrivalPos="967.06" arrivalPosLat="-0.00" arrivalSpeed="28.69" duration="133.80" routeLength="2483.86" waitingTime="20.80" waitingCount="1" stopTime="0.00" timeLoss="39.64" rerouteNo="1" devices="tripinfo_NeighborhoodtoStaRosa.2 routing_NeighborhoodtoStaRosa.2" vType="car" speedFactor="1.04" vaporized=""/>
    <tripinfo id="CalambatoStaRosa.4" depart="35.30" departLane="32425220#0_2" departPos="2.30" departPosLat="0.00" departSpeed="31.32" departDelay="0.00" arrival="251.50" arrivalLane="549232953#10_2" arrivalPos="967.06" arrivalPosLat="-0.00" arrivalSpeed="31.32" duration="216.20" routeLength="3158.37" waitingTime="94.10" waitingCount="1" stopTime="0.00" timeLoss="115.30" rerouteNo="1" devices="tripinfo_CalambatoStaRosa.4 routing_CalambatoStaRosa.4" vType="tricycle" speedFactor="1.13" vaporized=""/>
    <tripinfo id="CalambatoStaRosa.2" depart="26.60" departLane="32425220#0_2" departPos="12.10" departPosLat="0.00" departSpeed="27.78" departDelay="0.00" arrival="254.50" arrivalLane="549232953#10_1" arrivalPos="967.06" arrivalPosLat="-0.00" arrivalSpeed="27.73" duration="227.90" routeLength="3148.57" waitingTime="91.10" waitingCount="1" stopTime="0.00" timeLoss="114.46" rerouteNo="1" devices="tripinfo_CalambatoStaRosa.2 routing_CalambatoStaRosa.2" vType="bus" speedFactor="1.00" vaporized=""/>
    <tripinfo id="Banlic-MamatidtoCalamba.2" depart="113.40" departLane="1346113028#0_1" departPos="12.10" departPosLat="0.00" departSpeed="8.33" departDelay="0.00" arrival="255.70" arrivalLane="-32425220#0_1" arrivalPos="290.87" arrivalPosLat="0.00" arrivalSpeed="27.75" duration="142.30" routeLength="1735.53" waitingTime="0.00" waitingCount="0" stopTime="0.00" timeLoss="7.62" rerouteNo="1" devices="tripinfo_Banlic-MamatidtoCalamba.2 routing_Banlic-MamatidtoCalamba.2" vType="bus" speedFactor="1.00" vaporized=""/>
    <tripinfo id="CalambatoStaRosa.3" depart="30.30" departLane="32425220#0_1" departPos="2.30" departPosLat="0.00" departSpeed="26.18" departDelay="0.00" arrival="260.30" arrivalLane="549232953#10_1" arrivalPos="967.06" arrivalPosLat="-0.00" arrivalSpeed="25.98" duration="230.00" routeLength="3158.37" waitingTime="96.20" waitingCount="1" stopTime="0.00" timeLoss="109.31" rerouteNo="1" devices="tripinfo_CalambatoStaRosa.3 routing_CalambatoStaRosa.3" vType="motorcycle" speedFactor="0.94" vaporized=""/>
    <tripinfo id="StaRosatoCalamba.7" depart="48.40" departLane="-549232953#10_2" departPos="7.20" departPosLat="0.00" departSpeed="27.83" departDelay="0.00" arrival="266.70" arrivalLane="-32425220#0_1" arrivalPos="290.87" arrivalPosLat="-0.00" arrivalSpeed="28.17" duration="218.30" routeLength="3150.17" waitingTime="69.00" waitingCount="3" stopTime="0.00" timeLoss="106.46" rerouteNo="1" devices="tripinfo_StaRosatoCalamba.7 routing_StaRosatoCalamba.7" vType="truck" speedFactor="1.01" vaporized=""/>
    <tripinfo id="CalambatoStaRosa.6" depart="57.10" departLane="32425220#0_1" departPos="5.10" departPosLat="0.00" departSpeed="27.41" departDelay="0.00" arrival="267.10" arrivalLane="549232953#10_2" arrivalPos="967.06" arrivalPosLat="0.00" arrivalSpeed="27.30" duration="210.00" routeLength="3155.57" waitingTime="66.40" waitingCount="2" stopTime="0.00" timeLoss="94.80" rerouteNo="1" devices="tripinfo_CalambatoStaRosa.6 routing_CalambatoStaRosa.6" vType="car" speedFactor="0.99" vaporized=""/>
    <tripinfo id="StaRosatoCalamba.9" depart="54.10" departLane="-549232953#10_2" departPos="8.10" departPosLat="0.00" departSpeed="27.78" departDelay="0.00" arrival="268.10" arrivalLane="-32425220#0_2" arrivalPos="290.87" arrivalPosLat="0.00" arrivalSpeed="27.78" duration="214.00" routeLength="3149.27" waitingTime="64.90" waitingCount="1" stopTime="0.00" timeLoss="100.62" rerouteNo="1" devices="tripinfo_StaRosatoCalamba.9 routing_StaRosatoCalamba.9" vType="jeep" speedFactor="1.00" vaporized=""/>
    <tripinfo id="StaRosatoCalamba.5" depart="46.60" departLane="-549232953#10_2" departPos="7.20" departPosLat="0.00" departSpeed="26.39" departDelay="0.00" arrival="269.20" arrivalLane="-32425220#0_1" arrivalPos="290.87" arrivalPosLat="-0.00" arrivalSpeed="26.38" duration="222.60" routeLength="3150.17" waitingTime="61.90" waitingCount="3" stopTime="0.00" timeLoss="103.13" rerouteNo="1" devices="tripinfo_StaRosatoCalamba.5 routing_StaRosatoCalamba.5" vType="truck" speedFactor="0.95" vaporized=""/>
    <tripinfo id="StaRosatoCalamba.8" depart="53.80" departLane="-549232953#10_1" departPos="8.10" departPosLat="0.00" departSpeed="27.78" departDelay="0.00" arrival="270.30" arrivalLane="-32425220#0_2" arrivalPos="290.87" arrivalPosLat="0.00" arrivalSpeed="27.74" duration="216.50" routeLength="3149.27" waitingTime="55.20" waitingCount="2" stopTime="0.00" timeLoss="103.09" rerouteNo="1" devices="tripinfo_StaRosatoCalamba.8 routing_StaRosatoCalamba.8" vType="jeep" speedFactor="1.00" vaporized=""/>
    <tripinfo id="CalambatoStaRosa.9" depart="125.70" departLane="32425220#0_1" departPos="7.20" departPosLat="0.00" departSpeed="26.91" departDelay="0.00" arrival="271.10" arrivalLane="549232953#10_2" arrivalPos="967.06" arrivalPosLat="0.00" arrivalSpeed="26.87" duration="145.40" routeLength="3153.47" waitingTime="2.50" waitingCount="1" stopTime="0.00" timeLoss="28.21" rerouteNo="1" devices="tripinfo_CalambatoStaRosa.9 routing_CalambatoStaRosa.9" vType="truck" speedFactor="0.97" vaporized=""/>
    <tripinfo id="NeighborhoodtoStaRosa.1" depart="92.30" departLane="-32425190#1_1" departPos="2.30" departPosLat="0.00" departSpeed="11.28" departDelay="0.00" arrival="272.20" arrivalLane="549232953#10_1" arrivalPos="967.06" arrivalPosLat="-0.00" arrivalSpeed="22.54" duration="179.90" routeLength="2486.66" waitingTime="45.90" waitingCount="1" stopTime="0.00" timeLoss="59.59" rerouteNo="1" devices="tripinfo_NeighborhoodtoStaRosa.1 routing_NeighborhoodtoStaRosa.1" vType="tricycle" speedFactor="0.81" vaporized=""/>
    <tripinfo id="CalambatoBanlic-Mamatid.0" depart="40.30" departLane="32425220#0_1" departPos="5.10" departPosLat="0.00" departSpeed="29.05" departDelay="0.00" arrival="272.40" arrivalLane="-1346113028#0_1" arrivalPos="507.75" arrivalPosLat="0.00" arrivalSpeed="8.69" duration="232.10" routeLength="1737.47" waitingTime="88.60" waitingCount="1" stopTime="0.00" timeLoss="102.68" rerouteNo="1" devices="tripinfo_CalambatoBanlic-Mamatid.0 routing_CalambatoBanlic-Mamatid.0" vType="car" speedFactor="1.05" vaporized=""/>
    <tripinfo id="CalambatoStaRosa.7" depart="64.50" departLane="32425220#0_2" departPos="2.30" departPosLat="0.00" departSpeed="25.29" departDelay="0.80" arrival="273.40" arrivalLane="549232953#10_1" arrivalPos="967.06" arrivalPosLat="-0.00" arrivalSpeed="24.32" duration="208.90" routeLength="3158.37" waitingTime="62.40" waitingCount="1" stopTime="0.00" timeLoss="83.94" rerouteNo="1" devices="tripinfo_CalambatoStaRosa.7 routing_CalambatoStaRosa.7" vType="tricycle" speedFactor="0.91" vaporized=""/>
    <tripinfo id="StaRosatoCalamba.11" depart="128.20" departLane="-549232953#10_2" departPos="8.10" departPosLat="0.00" departSpeed="27.78" departDelay="0.00" arrival="274.50" arrivalLane="-32425220#0_1" arrivalPos="290.87" arrivalPosLat="-0.00" arrivalSpeed="27.76" duration="146.30" routeLength="3149.27" waitingTime="6.70" waitingCount="1" stopTime="0.00" timeLoss="32.87" rerouteNo="1" devices="tripinfo_StaRosatoCalamba.11 routing_StaRosatoCalamba.11" vType="jeep" speedFactor="1.00" vaporized=""/>
    <tripinfo id="CalambatoBanlic-Mamatid.1" depart="54.60" departLane="32425220#0_1" departPos="5.10" departPosLat="0.00" departSpeed="28.75" departDelay="0.00" arrival="275.60" arrivalLane="-1346113028#0_1" arrivalPos="507.75" arrivalPosLat="0.00" arrivalSpeed="8.50" duration="221.00" routeLength="1737.47" waitingTime="75.00" waitingCount="1" stopTime="0.00" timeLoss="90.18" rerouteNo="1" devices="tripinfo_CalambatoBanlic-Mamatid.1 routing_CalambatoBanlic-Mamatid.1" vType="car" speedFactor="1.03" vaporized=""/>
    <tripinfo id="StaRosatoCalamba.12" depart="129.90" departLane="-549232953#10_1" departPos="8.10" departPosLat="0.00" departSpeed="27.78" departDelay="0.00" arrival="275.90" arrivalLane="-32425220#0_1" arrivalPos="290.87" arrivalPosLat="-0.00" arrivalSpeed="27.72" duration="146.00" routeLength="3149.27" waitingTime="4.50" waitingCount="1" stopTime="0.00" timeLoss="32.54" rerouteNo="1" devices="tripinfo_StaRosatoCalamba.12 routing_StaRosatoCalamba.12" vType="jeep" speedFactor="1.00" vaporized=""/>
    <tripinfo id="CalambatoStaRosa.8" depart="82.10" departLane="32425220#0_1" departPos="7.20" departPosLat="0.00" departSpeed="25.59" departDelay="0.00" arrival="276.20" arrivalLane="549232953#10_2" arrivalPos="967.06" arrivalPosLat="0.00" arrivalSpeed="25.58" duration="194.10" routeLength="3153.47" waitingTime="45.80" waitingCount="1" stopTime="0.00" timeLoss="70.80" rerouteNo="1" devices="tripinfo_CalambatoStaRosa.8 routing_CalambatoStaRosa.8" vType="truck" speedFactor="0.92" vaporized=""/>
    <tripinfo id="StaRosatoCalamba.10" depart="125.80" departLane="-549232953#10_2" departPos="7.20" departPosLat="0.00" departSpeed="25.39" departDelay="0.00" arrival="278.80" arrivalLane="-32425220#0_1" arrivalPos="290.87" arrivalPosLat="-0.00" arrivalSpeed="25.37" duration="153.00" routeLength="3150.17" waitingTime="2.40" waitingCount="1" stopTime="0.00" timeLoss="28.81" rerouteNo="1" devices="tripinfo_StaRosatoCalamba.10 routing_StaRosatoCalamba.10" vType="truck" speedFactor="0.91" vaporized=""/>
    <tripinfo id="CalambatoStaRosa.5" depart="56.20" departLane="32425220#0_2" departPos="2.30" departPosLat="0.00" departSpeed="21.39" departDelay="0.00" arrival="281.90" arrivalLane="549232953#10_1" arrivalPos="967.06" arrivalPosLat="0.00" arrivalSpeed="21.28" duration="225.70" routeLength="3158.37" waitingTime="64.30" waitingCount="1" stopTime="0.00" timeLoss="78.01" rerouteNo="1" devices="tripinfo_CalambatoStaRosa.5 routing_CalambatoStaRosa.5" vType="motorcycle" speedFactor="0.77" vaporized=""/>
    <tripinfo id="Banlic-MamatidtoStaRosa.1" depart="75.60" departLane="1346113028#0_1" departPos="5.10" departPosLat="0.00" departSpeed="7.95" departDelay="0.00" arrival="284.60" arrivalLane="549232953#10_1" arrivalPos="967.06" arrivalPosLat="0.00" arrivalSpeed="26.38" duration="209.00" routeLength="3125.43" waitingTime="0.00" waitingCount="0" stopTime="0.00" timeLoss="15.22" rerouteNo="1" devices="tripinfo_Banlic-MamatidtoStaRosa.1 routing_Banlic-MamatidtoStaRosa.1" vType="car" speedFactor="0.95" vaporized=""/>
    <tripinfo id="Banlic-MamatidtoStaRosa.2" depart="79.40" departLane="1346113028#0_1" departPos="2.30" departPosLat="0.00" departSpeed="8.65" departDelay="0.00" arrival="285.70" arrivalLane="549232953#10_2" arrivalPos="967.06" arrivalPosLat="0.00" arrivalSpeed="28.83" duration="206.30" routeLength="3128.23" waitingTime="0.00" waitingCount="0" stopTime="0.00" timeLoss="27.96" rerouteNo="1" devices="tripinfo_Banlic-MamatidtoStaRosa.2 routing_Banlic-MamatidtoStaRosa.2" vType="tricycle" speedFactor="1.04" vaporized=""/>
    <tripinfo id="CalambatoBanlic-Mamatid.2" depart="62.80" departLane="32425220#0_1" departPos="5.10" departPosLat="0.00" departSpeed="25.82" departDelay="0.00" arrival="289.30" arrivalLane="-1346113028#0_1" arrivalPos="507.75" arrivalPosLat="0.00" arrivalSpeed="7.62" duration="226.50" routeLength="1737.47" waitingTime="59.50" waitingCount="1" stopTime="0.00" timeLoss="80.85" rerouteNo="1" devices="tripinfo_CalambatoBanlic-Mamatid.2 routing_CalambatoBanlic-Mamatid.2" vType="car" speedFactor="0.93" vaporized=""/>
    <tripinfo id="StaRosatoCalamba.13" depart="175.10" departLane="-549232953#10_2" departPos="5.10" departPosLat="0.00" departSpeed="26.83" departDelay="0.00" arrival="292.90" arrivalLane="-32425220#0_1" arrivalPos="290.87" arrivalPosLat="-0.00" arrivalSpeed="26.75" duration="117.80" routeLength="3152.27" waitingTime="0.00" waitingCount="0" stopTime="0.00" timeLoss="0.29" rerouteNo="1" devices="tripinfo_StaRosatoCalamba.13 routing_StaRosatoCalamba.13" vType="car" speedFactor="0.97" vaporized=""/>
    <tripinfo id="CalambatoBanlic-Mamatid.3" depart="104.70" departLane="32425220#0_1" departPos="2.30" departPosLat="0.00" departSpeed="25.10" departDelay="0.00" arrival="298.20" arrivalLane="-1346113028#0_1" arrivalPos="507.75" arrivalPosLat="0.00" arrivalSpeed="7.25" duration="193.50" routeLength="1740.27" waitingTime="25.00" waitingCount="1" stopTime="0.00" timeLoss="43.49" rerouteNo="1" devices="tripinfo_CalambatoBanlic-Mamatid.3 routing_CalambatoBanlic-Mamatid.3" vType="motorcycle" speedFactor="0.90" vaporized=""/>
    <personinfo id="InasaltoJeepPila.2" depart="144.00" type="ped" speedFactor="1.02" duration="155.60" waitingTime="102.90" timeLoss="108.37" traveltime="155.60">
        <walk depart="144.00" departPos="0.00" arrival="299.60" arrivalPos="25.71" duration="155.60" routeLength="67.08" timeLoss="108.37" maxSpeed="1.42" waitingTime="102.90"/>
    </personinfo>