<?xml version="1.0" encoding="UTF-8"?>

<!-- generated on 2026-02-25 04:38:39 by Eclipse SUMO sumo Version 1.24.0
<sumoConfiguration xmlns:xsi="http://www.w3.org/2001/XMLSchema-instance" xsi:noNamespaceSchemaLocation="http://sumo.dlr.de/xsd/sumoConfiguration.xsd">

    <input>
        <net-file value="Banlic-Mamatid_traci/network/banlic-mamatid_signalized.net.xml"/>
        <route-files value="Banlic-Mamatid_traci/demand/flows_normal_traffic.rou.xml"/>
        <additional-files value="Banlic-Mamatid_traci/additionals/banlic-mamatid.poly.xml,Banlic-Mamatid_traci/ additionals/banlic-mamatid.add.xml"/>
    </input>

    <output>
        <tripinfo-output value="Banlic-Mamatid_traci/output_A2C/test_normal_traffic_trips.xml"/>
        <statistic-output value="Banlic-Mamatid_traci/output_A2C/test_normal_traffic_stats.xml"/>
    </output>

    <time>
        <begin value="0"/>
        <end value="10800"/>
        <step-length value="0.1"/>
    </time>

    <processing>
        <lateral-resolution value="0.1"/>
        <collision.action value="none"/>
        <collision.check-junctions value="false"/>
        <collision.mingap-factor value="0"/>
    </processing>

    <report>
        <no-warnings value="true"/>
    </report>

    <traci_server>
        <remote-port value="8814"/>
    </traci_server>

    <gui_only>
        <delay value="0"/>
    </gui_only>

</sumoConfiguration>
-->

<tripinfos xmlns:xsi="http://www.w3.org/2001/XMLSchema-instance" xsi:noNamespaceSchemaLocation="http://sumo.dlr.de/xsd/tripinfo_file.xsd">
    <tripinfo id="NeighborhoodtoCalamba.0" depart="15.30" departLane="-32425190#1_1" departPos="12.10" departPosLat="0.00" departSpeed="13.89" departDelay="0.00" arrival="70.00" arrivalLane="-32425220#0_2" arrivalPos="290.87" arrivalPosLat="0.00" arrivalSpeed="27.72" duration="54.70" routeLength="1049.50" waitingTime="0.00" waitingCount="0" stopTime="0.00" timeLoss="9.45" rerouteNo="1" devices="tripinfo_NeighborhoodtoCalamba.0 routing_NeighborhoodtoCalamba.0" vType="bus" speedFactor="1.00" vaporized=""/>
    <tripinfo id="StaRosatoCalamba.0" depart="8.90" departLane="-549232953#10_1" departPos="8.10" departPosLat="0.00" departSpeed="27.78" departDelay="0.00" arrival="122.40" arrivalLane="-32425220#0_1" arrivalPos="290.87" arrivalPosLat="0.00" arrivalSpeed="27.74" duration="113.50" routeLength="3149.27" waitingTime="0.00" waitingCount="0" stopTime="0.00" timeLoss="0.12" rerouteNo="1" devices="tripinfo_StaRosatoCalamba.0 routing_StaRosatoCalamba.0" vType="jeep" speedFactor="1.00" vaporized=""/>
    <tripinfo id="StaRosatoCalamba.1" depart="16.40" departLane="-549232953#10_2" departPos="7.20" departPosLat="0.00" departSpeed="27.60" departDelay="0.00" arrival="130.70" arrivalLane="-32425220#0_1" arrivalPos="290.87" arrivalPosLat="-0.00" arrivalSpeed="27.58" duration="114.30" routeLength="3150.17" waitingTime="0.00" waitingCount="0" stopTime="0.00" timeLoss="0.14" rerouteNo="1" devices="tripinfo_StaRosatoCalamba.1 routing_StaRosatoCalamba.1" vType="truck" speedFactor="0.99" vaporized=""/>
    <personinfo id="PalengketoJeepPila.0" depart="0.00" type="ped" speedFactor="1.06" duration="150.90" waitingTime="106.70" timeLoss="111.13" traveltime="150.90">
        <walk depart="0.00" departPos="0.00" arrival="150.90" arrivalPos="25.71" duration="150.90" routeLength="58.82" timeLoss="111.13" maxSpeed="1.48" waitingTime="106.70"/>
    </personinfo>
    <personinfo id="SavemoretoJeepPila.0" depart="0.00" type="ped" speedFactor="0.87" duration="153.70" waitingTime="24.10" timeLoss="37.41" traveltime="153.70">
        <walk depart="0.00" departPos="0.00" arrival="153.70" arrivalPos="25.71" duration="153.70" routeLength="140.94" timeLoss="37.41" maxSpeed="1.21" waitingTime="24.10"/>
    </personinfo>
    <personinfo id="InasaltoPalengke.0" depart="0.00" type="ped" speedFactor="0.93" duration="157.20" waitingTime="115.90" timeLoss="120.07" traveltime="157.20">
        <walk depart="0.00" departPos="0.00" arrival="157.20" arrivalPos="34.28" duration="157.20" routeLength="48.06" timeLoss="120.07" maxSpeed="1.29" waitingTime="115.90"/>
    </personinfo>
    <personinfo id="PalengketoInasal.0" depart="0.00" type="ped" speedFactor="1.15" duration="158.90" waitingTime="118.30" timeLoss="122.41" traveltime="158.90">
        <walk depart="0.00" departPos="0.00" arrival="158.90" arrivalPos="44.65" duration="158.90" routeLength="58.43" timeLoss="122.41" maxSpeed="1.60" waitingTime="118.30"/>
    </personinfo>
    <personinfo id="InasaltoSavemore.0" depart="0.00" type="ped" speedFactor="0.97" duration="170.00" waitingTime="118.00" timeLoss="123.54" traveltime="170.00">
        <walk depart="0.00" departPos="0.00" arrival="170.00" arrivalPos="44.65" duration="170.00" routeLength="62.53" timeLoss="123.54" maxSpeed="1.35" waitingTime="118.00"/>
    </personinfo>
    <personinfo id="JeepPilatoSavemore.0" depart="0.00" type="ped" speedFactor="0.96" duration="175.50" waitingTime="116.80" timeLoss="122.73" traveltime="175.50">
        <walk depart="0.00" departPos="0.00" arrival="175.50" arrivalPos="44.65" duration="175.50" routeLength="70.59" timeLoss="122.73" maxSpeed="1.34" waitingTime="116.80"/>
    </personinfo>
    <personinfo id="SavemoretoInasal.0" depart="0.00" type="ped" speedFactor="0.85" duration="176.30" waitingTime="34.20" timeLoss="123.64" traveltime="176.30">
        <walk depart="0.00" departPos="0.00" arrival="176.30" arrivalPos="44.65" duration="176.30" routeLength="62.53" timeLoss="123.64" maxSpeed="1.19" waitingTime="34.20"/>
    </personinfo>
    <personinfo id="JeepPilatoPalengke.0" depart="0.00" type="ped" speedFactor="0.92" duration="177.30" waitingTime="118.60" timeLoss="124.52" traveltime="177.30">
        <walk depart="0.00" departPos="0.00" arrival="177.30" arrivalPos="34.28" duration="177.30" routeLength="67.39" timeLoss="124.52" maxSpeed="1.28" waitingTime="118.60"/>
    </personinfo>
    <tripinfo id="StaRosatoCalamba.2" depart="41.40" departLane="-549232953#10_2" departPos="7.20" departPosLat="0.00" departSpeed="28.37" departDelay="0.00" arrival="201.00" arrivalLane="-32425220#0_1" arrivalPos="290.87" arrivalPosLat="-0.00" arrivalSpeed="28.35" duration="159.60" routeLength="3150.17" waitingTime="25.60" waitingCount="2" stopTime="0.00" timeLoss="48.50" rerouteNo="1" devices="tripinfo_StaRosatoCalamba.2 routing_StaRosatoCalamba.2" vType="truck" speedFactor="1.02" vaporized=""/>
    <tripinfo id="Banlic-MamatidtoCalamba.0" depart="13.90" departLane="1346113028#0_1" departPos="5.10" departPosLat="0.00" departSpeed="7.97" departDelay="0.00" arrival="203.40" arrivalLane="-32425220#0_1" arrivalPos="290.87" arrivalPosLat="0.00" arrivalSpeed="26.46" duration="189.50" routeLength="1742.53" waitingTime="33.70" waitingCount="1" stopTime="0.00" timeLoss="47.82" rerouteNo="1" devices="tripinfo_Banlic-MamatidtoCalamba.0 routing_Banlic-MamatidtoCalamba.0" vType="car" speedFactor="0.96" vaporized=""/>
    <tripinfo id="Banlic-MamatidtoCalamba.1" depart="62.00" departLane="1346113028#0_1" departPos="7.20" departPosLat="0.00" departSpeed="8.23" departDelay="0.00" arrival="206.10" arrivalLane="-32425220#0_2" arrivalPos="290.87" arrivalPosLat="-0.00" arrivalSpeed="27.43" duration="144.10" routeLength="1740.43" waitingTime="0.00" waitingCount="0" stopTime="0.00" timeLoss="7.10" rerouteNo="1" devices="tripinfo_Banlic-MamatidtoCalamba.1 routing_Banlic-MamatidtoCalamba.1" vType="truck" speedFactor="0.99" vaporized=""/>
    <tripinfo id="NeighborhoodtoStaRosa.0" depart="92.30" departLane="-32425190#1_1" departPos="5.10" departPosLat="0.00" departSpeed="14.95" departDelay="0.00" arrival="215.70" arrivalLane="549232953#10_1" arrivalPos="967.06" arrivalPosLat="-0.00" arrivalSpeed="29.85" duration="123.40" routeLength="2483.86" waitingTime="24.10" waitingCount="1" stopTime="0.00" timeLoss="32.83" rerouteNo="1" devices="tripinfo_NeighborhoodtoStaRosa.0 routing_NeighborhoodtoStaRosa.0" vType="car" speedFactor="1.08" vaporized=""/>
    <tripinfo id="StaRosatoCalamba.4" depart="54.10" departLane="-549232953#10_2" departPos="2.30" departPosLat="0.00" departSpeed="31.64" departDelay="0.00" arrival="224.40" arrivalLane="-32425220#0_2" arrivalPos="290.87" arrivalPosLat="0.00" arrivalSpeed="31.54" duration="170.30" routeLength="3155.07" waitingTime="46.40" waitingCount="2" stopTime="0.00" timeLoss="70.56" rerouteNo="1" devices="tripinfo_StaRosatoCalamba.4 routing_StaRosatoCalamba.4" vType="tricycle" speedFactor="1.14" vaporized=""/>
    <tripinfo id="StaRosatoCalamba.3" depart="48.40" departLane="-549232953#10_1" departPos="8.10" departPosLat="0.00" departSpeed="27.78" departDelay="0.00" arrival="233.20" arrivalLane="-32425220#0_1" arrivalPos="290.87" arrivalPosLat="0.00" arrivalSpeed="27.74" duration="184.80" routeLength="3149.27" waitingTime="33.40" waitingCount="2" stopTime="0.00" timeLoss="71.36" rerouteNo="1" devices="tripinfo_StaRosatoCalamba.3 routing_StaRosatoCalamba.3" vType="jeep" speedFactor="1.00" vaporized=""/>
    <tripinfo id="CalambatoStaRosa.0" depart="35.30" departLane="32425220#0_1" departPos="5.10" departPosLat="0.00" departSpeed="23.28" departDelay="0.00" arrival="234.40" arrivalLane="549232953#10_1" arrivalPos="967.06" arrivalPosLat="0.00" arrivalSpeed="23.16" duration="199.10" routeLength="3155.57" waitingTime="54.80" waitingCount="1" stopTime="0.00" timeLoss="63.46" rerouteNo="1" devices="tripinfo_CalambatoStaRosa.0 routing_CalambatoStaRosa.0" vType="car" speedFactor="0.84" vaporized=""/>
    <tripinfo id="StaRosatoCalamba.5" depart="125.80" departLane="-549232953#10_1" departPos="5.10" departPosLat="0.00" departSpeed="27.99" departDelay="0.00" arrival="238.80" arrivalLane="-32425220#0_1" arrivalPos="290.87" arrivalPosLat="0.00" arrivalSpeed="27.93" duration="113.00" routeLength="3152.27" waitingTime="0.00" waitingCount="0" stopTime="0.00" timeLoss="0.27" rerouteNo="1" devices="tripinfo_StaRosatoCalamba.5 routing_StaRosatoCalamba.5" vType="car" speedFactor="1.01" vaporized=""/>
    <tripinfo id="CalambatoStaRosa.3" depart="82.10" departLane="32425220#0_1" departPos="7.20" departPosLat="0.00" departSpeed="27.35" departDelay="0.00" arrival="239.80" arrivalLane="549232953#10_2" arrivalPos="967.06" arrivalPosLat="-0.00" arrivalSpeed="27.29" duration="157.70" routeLength="3153.47" waitingTime="14.90" waitingCount="1" stopTime="0.00" timeLoss="42.34" rerouteNo="1" devices="tripinfo_CalambatoStaRosa.3 routing_CalambatoStaRosa.3" vType="truck" speedFactor="0.98" vaporized=""/>
    <tripinfo id="CalambatoStaRosa.1" depart="57.10" departLane="32425220#0_2" departPos="7.20" departPosLat="0.00" departSpeed="26.46" departDelay="0.00" arrival="240.70" arrivalLane="549232953#10_1" arrivalPos="967.06" arrivalPosLat="-0.00" arrivalSpeed="26.43" duration="183.60" routeLength="3153.47" waitingTime="47.70" waitingCount="1" stopTime="0.00" timeLoss="64.42" rerouteNo="1" devices="tripinfo_CalambatoStaRosa.1 routing_CalambatoStaRosa.1" vType="truck" speedFactor="0.95" vaporized=""/>
    <tripinfo id="StaRosatoCalamba.6" depart="129.90" departLane="-549232953#10_2" departPos="2.30" departPosLat="0.00" departSpeed="27.90" departDelay="0.00" arrival="243.70" arrivalLane="-32425220#0_1" arrivalPos="290.87" arrivalPosLat="-0.00" arrivalSpeed="27.82" duration="113.80" routeLength="3155.07" waitingTime="0.00" waitingCount="0" stopTime="0.00" timeLoss="0.62" rerouteNo="1" devices="tripinfo_StaRosatoCalamba.6 routing_StaRosatoCalamba.6" vType="motorcycle" speedFactor="1.00" vaporized=""/>
    <tripinfo id="CalambatoStaRosa.2" depart="63.70" departLane="32425220#0_1" departPos="7.20" departPosLat="0.00" departSpeed="26.35" departDelay="0.00" arrival="244.30" arrivalLane="549232953#10_1" arrivalPos="967.06" arrivalPosLat="-0.00" arrivalSpeed="26.32" duration="180.60" routeLength="3153.47" waitingTime="37.90" waitingCount="1" stopTime="0.00" timeLoss="60.84" rerouteNo="1" devices="tripinfo_CalambatoStaRosa.2 routing_CalambatoStaRosa.2" vType="truck" speedFactor="0.95" vaporized=""/>
    <personinfo id="InasaltoJeepPila.0" depart="0.00" type="ped" speedFactor="0.97" duration="256.10" waitingTime="200.80" timeLoss="206.50" traveltime="256.10">
        <walk depart="0.00" departPos="0.00" arrival="256.10" arrivalPos="25.71" duration="256.10" routeLength="67.08" timeLoss="206.50" maxSpeed="1.35" waitingTime="200.80"/>
    </personinfo>
    <personinfo id="SavemoretoPalengke.0" depart="0.00" type="ped" speedFactor="1.06" duration="259.20" waitingTime="128.50" timeLoss="156.19" traveltime="259.20">
        <walk depart="0.00" departPos="0.00" arrival="259.20" arrivalPos="34.28" duration="259.20" routeLength="151.65" timeLoss="156.19" maxSpeed="1.47" waitingTime="128.50"/>
    </personinfo>
    <tripinfo id="CalambatoBanlic-Mamatid.0" depart="40.30" departLane="32425220#0_2" departPos="2.30" departPosLat="0.00" departSpeed="25.10" departDelay="0.00" arrival="260.30" arrivalLane="-1346113028#0_1" arrivalPos="507.75" arrivalPosLat="-0.00" arrivalSpeed="7.24" duration="220.00" routeLength="1740.27" waitingTime="63.90" waitingCount="1" stopTime="0.00" timeLoss="70.10" rerouteNo="1" devices="tripinfo_CalambatoBanlic-Mamatid.0 routing_CalambatoBanlic-Mamatid.0" vType="motorcycle" speedFactor="0.90" vaporized=""/>
    <personinfo id="PalengketoJeepPila.1" depart="144.00" type="ped" speedFactor="0.96" duration="116.40" waitingTime="67.30" timeLoss="72.13" traveltime="116.40">
        <walk depart="144.00" departPos="0.00" arrival="260.40" arrivalPos="25.71" duration="116.40" routeLength="58.82" timeLoss="72.13" maxSpeed="1.33" waitingTime="67.30"/>
    </personinfo>
    <tripinfo id="CalambatoBanlic-Mamatid.1" depart="54.60" departLane="32425220#0_1" departPos="8.10" departPosLat="0.00" departSpeed="27.78" departDelay="0.00" arrival="262.30" arrivalLane="-1346113028#0_1" arrivalPos="507.75" arrivalPosLat="0.00" arrivalSpeed="8.30" duration="207.70" routeLength="1734.47" waitingTime="47.70" waitingCount="1" stopTime="0.00" timeLoss="72.45" rerouteNo="1" devices="tripinfo_CalambatoBanlic-Mamatid.1 routing_CalambatoBanlic-Mamatid.1" vType="jeep" speedFactor="1.00" vaporized=""/>
    <personinfo id="InasaltoSavemore.1" depart="144.00" type="ped" speedFactor="1.24" duration="120.60" waitingTime="80.30" timeLoss="84.36" traveltime="120.60">
        <walk depart="144.00" departPos="0.00" arrival="264.60" arrivalPos="44.65" duration="120.60" routeLength="62.53" timeLoss="84.36" maxSpeed="1.73" waitingTime="80.30"/>
    </personinfo>
    <personinfo id="InasaltoPalengke.1" depart="144.00" type="ped" speedFactor="0.88" duration="121.40" waitingTime="77.50" timeLoss="81.98" traveltime="121.40">
        <walk depart="144.00" departPos="0.00" arrival="265.40" arrivalPos="34.28" duration="121.40" routeLength="48.06" timeLoss="81.98" maxSpeed="1.22" waitingTime="77.50"/>
    </personinfo>
    <personinfo id="SavemoretoInasal.1" depart="144.00" type="ped" speedFactor="1.17" duration="123.10" waitingTime="19.10" timeLoss="84.58" traveltime="123.10">
        <walk depart="144.00" departPos="0.00" arrival="267.10" arrivalPos="44.65" duration="123.10" routeLength="62.53" timeLoss="84.58" maxSpeed="1.62" waitingTime="19.10"/>
    </personinfo>
    <tripinfo id="Banlic-MamatidtoStaRosa.0" depart="75.60" departLane="1346113028#0_1" departPos="12.10" departPosLat="0.00" departSpeed="8.33" departDelay="0.00" arrival="268.80" arrivalLane="549232953#10_1" arrivalPos="967.06" arrivalPosLat="-0.00" arrivalSpeed="27.74" duration="193.20" routeLength="3118.43" waitingTime="0.00" waitingCount="0" stopTime="0.00" timeLoss="9.18" rerouteNo="1" devices="tripinfo_Banlic-MamatidtoStaRosa.0 routing_Banlic-MamatidtoStaRosa.0" vType="bus" speedFactor="1.00" vaporized=""/>
    <tripinfo id="CalambatoNeighborhood.0" depart="156.50" departLane="32425220#0_1" departPos="12.10" departPosLat="0.00" departSpeed="27.78" departDelay="0.00" arrival="268.90" arrivalLane="32425190#1_1" arrivalPos="142.43" arrivalPosLat="0.00" arrivalSpeed="13.85" duration="112.40" routeLength="1063.05" waitingTime="55.60" waitingCount="1" stopTime="0.00" timeLoss="65.89" rerouteNo="1" devices="tripinfo_CalambatoNeighborhood.0 routing_CalambatoNeighborhood.0" vType="bus" speedFactor="1.00" vaporized=""/>
    <personinfo id="PalengketoInasal.1" depart="144.00" type="ped" speedFactor="1.03" duration="126.10" waitingTime="80.90" timeLoss="85.35" traveltime="126.10">
        <walk depart="144.00" departPos="0.00" arrival="270.10" arrivalPos="44.65" duration="126.10" routeLength="58.43" timeLoss="85.35" maxSpeed="1.43" waitingTime="80.90"/>
    </personinfo>
    <personinfo id="JeepPilatoPalengke.1" depart="144.00" type="ped" speedFactor="1.09" duration="129.60" waitingTime="79.70" timeLoss="85.07" traveltime="129.60">
        <walk depart="144.00" departPos="0.00" arrival="273.60" arrivalPos="34.28" duration="129.60" routeLength="67.39" timeLoss="85.07" maxSpeed="1.51" waitingTime="79.70"/>
    </personinfo>
    <personinfo id="PalengketoSavemore.0" depart="0.00" type="ped" speedFactor="0.98" duration="274.70" waitingTime="215.60" timeLoss="221.53" traveltime="274.70">
        <walk depart="0.00" departPos="0.00" arrival="274.70" arrivalPos="44.65" duration="274.70" routeLength="72.73" timeLoss="221.53" maxSpeed="1.37" waitingTime="215.60"/>
    </personinfo>
    <personinfo id="JeepPilatoInasal.0" depart="0.00" type="ped" speedFactor="0.95" duration="276.60" waitingTime="203.80" timeLoss="211.23" traveltime="276.60">
        <walk depart="0.00" departPos="0.00" arrival="276.60" arrivalPos="44.65" duration="276.60" routeLength="86.02" timeLoss="211.23" maxSpeed="1.32" waitingTime="203.80"/>
    </personinfo>
    <personinfo id="JeepPilatoSavemore.1" depart="144.00" type="ped" speedFactor="1.00" duration="136.20" waitingTime="79.90" timeLoss="85.61" traveltime="136.20">
        <walk depart="144.00" departPos="0.00" arrival="280.20" arrivalPos="44.65" duration="136.20" routeLength="70.59" timeLoss="85.61" maxSpeed="1.40" waitingTime="79.90"/>
    </personinfo>
    <tripinfo id="NeighborhoodtoCalamba.1" depart="201.70" departLane="-32425190#1_1" departPos="12.10" departPosLat="0.00" departSpeed="13.89" departDelay="0.00" arrival="282.40" arrivalLane="-32425220#0_2" arrivalPos="290.87" arrivalPosLat="0.00" arrivalSpeed="27.73" duration="80.70" routeLength="1049.50" waitingTime="20.00" waitingCount="1" stopTime="0.00" timeLoss="35.41" rerouteNo="1" devices="tripinfo_NeighborhoodtoCalamba.1 routing_NeighborhoodtoCalamba.1" vType="bus" speedFactor="1.00" vaporized=""/>
    <tripinfo id="StaRosatoBanlic-Mamatid.0" depart="84.00" departLane="-549232953#10_1" departPos="8.10" departPosLat="0.00" departSpeed="27.78" departDelay="0.00" arrival="296.20" arrivalLane="-1346113028#0_1" arrivalPos="507.75" arrivalPosLat="0.00" arrivalSpeed="8.27" duration="212.20" routeLength="3132.81" waitingTime="13.20" waitingCount="1" stopTime="0.00" timeLoss="26.29" rerouteNo="1" devices="tripinfo_StaRosatoBanlic-Mamatid.0 routing_StaRosatoBanlic-Mamatid.0" vType="jeep" speedFactor="1.00" vaporized=""/>
    <tripinfo id="Banlic-MamatidtoCalamba.2" depart="113.40" departLane="1346113028#0_1" departPos="8.10" departPosLat="0.00" departSpeed="8.33" departDelay="0.00" arrival="308.90" arrivalLane="-32425220#0_1" arrivalPos="290.87" arrivalPosLat="0.00" arrivalSpeed="27.75" duration="195.50" routeLength="1739.53" waitingTime="45.40" waitingCount="1" stopTime="0.00" timeLoss="60.39" rerouteNo="1" devices="tripinfo_Banlic-MamatidtoCalamba.2 routing_Banlic-MamatidtoCalamba.2" vType="jeep" speedFactor="1.00" vaporized=""/>
    <tripinfo id="Banlic-MamatidtoCalamba.4" depart="150.30" departLane="1346113028#0_1" departPos="5.10" departPosLat="0.00" departSpeed="7.79" departDelay="0.00" arrival="310.30" arrivalLane="-32425220#0_2" arrivalPos="290.87" arrivalPosLat="0.00" arrivalSpeed="25.95" duration="160.00" routeLength="1742.53" waitingTime="0.60" waitingCount="1" stopTime="0.00" timeLoss="15.05" rerouteNo="1" devices="tripinfo_Banlic-MamatidtoCalamba.4 routing_Banlic-MamatidtoCalamba.4" vType="car" speedFactor="0.93" vaporized=""/>
    <tripinfo id="Banlic-MamatidtoCalamba.3" depart="129.20" departLane="1346113028#0_1" departPos="5.10" departPosLat="0.00" departSpeed="7.12" departDelay="0.00" arrival="313.50" arrivalLane="-32425220#0_1" arrivalPos="290.87" arrivalPosLat="0.00" arrivalSpeed="23.73" duration="184.30" routeLength="1742.53" waitingTime="10.30" waitingCount="1" stopTime="0.00" timeLoss="25.72" rerouteNo="1" devices="tripinfo_Banlic-MamatidtoCalamba.3 routing_Banlic-MamatidtoCalamba.3" vType="car" speedFactor="0.85" vaporized=""/>
    <tripinfo id="StaRosatoNeighborhood.0" depart="214.60" departLane="-549232953#10_1" departPos="5.10" departPosLat="0.00" departSpeed="26.79" departDelay="0.00" arrival="319.20" arrivalLane="32425190#1_1" arrivalPos="142.43" arrivalPosLat="0.00" arrivalSpeed="13.36" duration="104.60" routeLength="2475.52" waitingTime="0.00" waitingCount="0" stopTime="0.00" timeLoss="4.01" rerouteNo="1" devices="tripinfo_StaRosatoNeighborhood.0 routing_StaRosatoNeighborhood.0" vType="car" speedFactor="0.96" vaporized=""/>
    <tripinfo id="CalambatoStaRosa.5" depart="131.40" departLane="32425220#0_2" departPos="5.10" departPosLat="0.00" departSpeed="27.91" departDelay="0.00" arrival="325.20" arrivalLane="549232953#10_1" arrivalPos="967.06" arrivalPosLat="-0.00" arrivalSpeed="27.80" duration="193.80" routeLength="3155.57" waitingTime="62.70" waitingCount="2" stopTime="0.00" timeLoss="80.67" rerouteNo="1" devices="tripinfo_CalambatoStaRosa.5 routing_CalambatoStaRosa.5" vType="car" speedFactor="1.00" vaporized=""/>
    <tripinfo id="CalambatoStaRosa.4" depart="125.70" departLane="32425220#0_1" departPos="8.10" departPosLat="0.00" departSpeed="27.78" departDelay="0.00" arrival="333.70" arrivalLane="549232953#10_1" arrivalPos="967.06" arrivalPosLat="0.00" arrivalSpeed="27.76" duration="208.00" routeLength="3152.57" waitingTime="75.60" waitingCount="1" stopTime="0.00" timeLoss="94.43" rerouteNo="1" devices="tripinfo_CalambatoStaRosa.4 routing_CalambatoStaRosa.4" vType="jeep" speedFactor="1.00" vaporized=""/>
    <tripinfo id="CalambatoStaRosa.6" depart="136.00" departLane="32425220#0_1" departPos="5.10" departPosLat="0.00" departSpeed="26.58" departDelay="0.00" arrival="338.00" arrivalLane="549232953#10_1" arrivalPos="967.06" arrivalPosLat="0.00" arrivalSpeed="26.47" duration="202.00" routeLength="3155.57" waitingTime="59.90" waitingCount="1" stopTime="0.00" timeLoss="83.29" rerouteNo="1" devices="tripinfo_CalambatoStaRosa.6 routing_CalambatoStaRosa.6" vType="car" speedFactor="0.96" vaporized=""/>
    <tripinfo id="CalambatoStaRosa.7" depart="142.00" departLane="32425220#0_2" departPos="5.10" departPosLat="0.00" departSpeed="28.06" departDelay="0.00" arrival="340.10" arrivalLane="549232953#10_1" arrivalPos="967.06" arrivalPosLat="-0.00" arrivalSpeed="27.96" duration="198.10" routeLength="3155.57" waitingTime="58.90" waitingCount="2" stopTime="0.00" timeLoss="85.58" rerouteNo="1" devices="tripinfo_CalambatoStaRosa.7 routing_CalambatoStaRosa.7" vType="car" speedFactor="1.01" vaporized=""/>
    <tripinfo id="CalambatoStaRosa.8" depart="160.50" departLane="32425220#0_2" departPos="5.10" departPosLat="0.00" departSpeed="27.52" departDelay="0.00" arrival="341.00" arrivalLane="549232953#10_2" arrivalPos="967.06" arrivalPosLat="-0.03" arrivalSpeed="27.46" duration="180.50" routeLength="3155.57" waitingTime="48.00" waitingCount="1" stopTime="0.00" timeLoss="65.79" rerouteNo="1" devices="tripinfo_CalambatoStaRosa.8 routing_CalambatoStaRosa.8" vType="car" speedFactor="0.99" vaporized=""/>
    <tripinfo id="CalambatoStaRosa.9" depart="227.40" departLane="32425220#0_1" departPos="7.20" departPosLat="0.00" departSpeed="28.45" departDelay="0.00" arrival="342.60" arrivalLane="549232953#10_1" arrivalPos="967.06" arrivalPosLat="0.00" arrivalSpeed="28.41" duration="115.20" routeLength="3153.47" waitingTime="0.00" waitingCount="0" stopTime="0.00" timeLoss="4.29" rerouteNo="1" devices="tripinfo_CalambatoStaRosa.9 routing_CalambatoStaRosa.9" vType="truck" speedFactor="1.02" vaporized=""/>
    <tripinfo id="CalambatoBanlic-Mamatid.2" depart="136.50" departLane="32425220#0_1" departPos="8.10" departPosLat="0.00" departSpeed="21.74" departDelay="0.00" arrival="356.40" arrivalLane="-1346113028#0_1" arrivalPos="507.75" arrivalPosLat="0.00" arrivalSpeed="8.32" duration="219.90" routeLength="1734.47" waitingTime="63.00" waitingCount="2" stopTime="0.00" timeLoss="84.65" rerouteNo="1" devices="tripinfo_CalambatoBanlic-Mamatid.2 routing_CalambatoBanlic-Mamatid.2" vType="jeep" speedFactor="1.00" vaporized=""/>
    <personinfo id="SavemoretoJeepPila.1" depart="144.00" type="ped" speedFactor="0.92" duration="219.30" waitingTime="97.10" timeLoss="108.66" traveltime="219.30">
        <walk depart="144.00" departPos="0.00" arrival="363.30" arrivalPos="25.71" duration="219.30" routeLength="140.94" timeLoss="108.66" maxSpeed="1.27" waitingTime="97.10"/>
    </personinfo>
    <personinfo id="PalengketoJeepPila.2" depart="288.00" type="ped" speedFactor="0.97" duration="77.60" waitingTime="29.00" timeLoss="33.86" traveltime="77.60">
        <walk depart="288.00" departPos="0.00" arrival="365.60" arrivalPos="25.71" duration="77.60" routeLength="58.82" timeLoss="33.86" maxSpeed="1.34" waitingTime="29.00"/>
    </personinfo>
    <personinfo id="InasaltoJeepPila.1" depart="144.00" type="ped" speedFactor="0.87" duration="222.20" waitingTime="160.10" timeLoss="166.76" traveltime="222.20">
        <walk depart="144.00" departPos="0.00" arrival="366.20" arrivalPos="25.71" duration="222.20" routeLength="67.08" timeLoss="166.76" maxSpeed="1.21" waitingTime="160.10"/>
    </personinfo>
    <personinfo id="InasaltoPalengke.2" depart="288.00" type="ped" speedFactor="0.99" duration="78.60" waitingTime="39.80" timeLoss="43.56" traveltime="78.60">
        <walk depart="288.00" departPos="0.00" arrival="366.60" arrivalPos="34.28" duration="78.60" routeLength="48.06" timeLoss="43.56" maxSpeed="1.37" waitingTime="39.80"/>
    </personinfo>
    <personinfo id="SavemoretoPalengke.1" depart="144.00" type="ped" speedFactor="0.94" duration="224.70" waitingTime="94.10" timeLoss="108.33" traveltime="224.70">
        <walk depart="144.00" departPos="0.00" arrival="368.70" arrivalPos="34.28" duration="224.70" routeLength="151.65" timeLoss="108.33" maxSpeed="1.30" waitingTime="94.10"/>
    </personinfo>
    <personinfo id="InasaltoSavemore.2" depart="288.00" type="ped" speedFactor="1.11" duration="87.00" waitingTime="41.80" timeLoss="46.43" traveltime="87.00">
        <walk depart="288.00" departPos="0.00" arrival="375.00" arrivalPos="44.65" duration="87.00" routeLength="62.53" timeLoss="46.43" maxSpeed="1.54" waitingTime="41.80"/>
    </personinfo>
    <tripinfo id="CalambatoNeighborhood.1" depart="323.90" departLane="32425220#0_1" departPos="5.10" departPosLat="0.00" departSpeed="23.79" departDelay="0.00" arrival="377.80" arrivalLane="32425190#1_1" arrivalPos="142.43" arrivalPosLat="0.00" arrivalSpeed="14.57" duration="53.90" routeLength="1070.05" waitingTime="0.00" waitingCount="0" stopTime="0.00" timeLoss="9.36" rerouteNo="1" devices="tripinfo_CalambatoNeighborhood.1 routing_CalambatoNeighborhood.1" vType="car" speedFactor="1.05" vaporized=""/>
    <personinfo id="PalengketoSavemore.1" depart="144.00" type="ped" speedFactor="1.03" duration="234.50" waitingTime="177.80" timeLoss="183.78" traveltime="234.50">
        <walk depart="144.00" departPos="0.00" arrival="378.50" arrivalPos="44.65" duration="234.50" routeLength="72.73" timeLoss="183.78" maxSpeed="1.43" waitingTime="177.80"/>
    </personinfo>
    <personinfo id="JeepPilatoSavemore.2" depart="288.00" type="ped" speedFactor="1.07" duration="94.20" waitingTime="40.80" timeLoss="46.77" traveltime="94.20">
        <walk depart="288.00" departPos="0.00" arrival="382.20" arrivalPos="44.65" duration="94.20" routeLength="70.59" timeLoss="46.77" maxSpeed="1.49" waitingTime="40.80"/>
    </personinfo>
    <personinfo id="JeepPilatoPalengke.2" depart="288.00" type="ped" speedFactor="1.03" duration="94.80" waitingTime="42.60" timeLoss="47.73" traveltime="94.80">
        <walk depart="288.00" departPos="0.00" arrival="382.80" arrivalPos="34.28" duration="94.80" routeLength="67.39" timeLoss="47.73" maxSpeed="1.43" waitingTime="42.60"/>
    </personinfo>
    <tripinfo id="Banlic-MamatidtoStaRosa.1" depart="191.50" departLane="1346113028#0_1" departPos="8.10" departPosLat="0.00" departSpeed="8.33" departDelay="0.00" arrival="385.50" arrivalLane="549232953#10_1" arrivalPos="967.06" arrivalPosLat="-0.00" arrivalSpeed="27.73" duration="194.00" routeLength="3122.43" waitingTime="0.00" waitingCount="0" stopTime="0.00" timeLoss="9.47" rerouteNo="1" devices="tripinfo_Banlic-MamatidtoStaRosa.1 routing_Banlic-MamatidtoStaRosa.1" vType="jeep" speedFactor="1.00" vaporized=""/>
    <personinfo id="PalengketoInasal.2" depart="288.00" type="ped" speedFactor="0.82" duration="98.20" waitingTime="41.30" timeLoss="47.03" traveltime="98.20">
        <walk depart="288.00" departPos="0.00" arrival="386.20" arrivalPos="44.65" duration="98.20" routeLength="58.43" timeLoss="47.03" maxSpeed="1.14" waitingTime="41.30"/>
    </personinfo>
    <personinfo id="JeepPilatoInasal.1" depart="144.00" type="ped" speedFactor="0.87" duration="242.70" waitingTime="163.70" timeLoss="171.91" traveltime="242.70">
        <walk depart="144.00" departPos="0.00" arrival="386.70" arrivalPos="44.65" duration="242.70" routeLength="86.02" timeLoss="171.91" maxSpeed="1.22" waitingTime="163.70"/>
    </personinfo>