<?xml version="1.0" encoding="UTF-8"?>

<!-- generated on 2026-02-25 04:39:29 by Eclipse SUMO sumo Version 1.24.0
<sumoConfiguration xmlns:xsi="http://www.w3.org/2001/XMLSchema-instance" xsi:noNamespaceSchemaLocation="http://sumo.dlr.de/xsd/sumoConfiguration.xsd">

    <input>
        <net-file value="Banlic-Mamatid_traci/network/banlic-mamatid_signalized.net.xml"/>
        <route-files value="Banlic-Mamatid_traci/demand/flows_slow_traffic.rou.xml"/>
        <additional-files value="Banlic-Mamatid_traci/additionals/banlic-mamatid.poly.xml,Banlic-Mamatid_traci/ additionals/banlic-mamatid.add.xml"/>
    </input>

    <output>
        <tripinfo-output value="Banlic-Mamatid_traci/output_A2C/test_slow_traffic_trips.xml"/>
        <statistic-output value="Banlic-Mamatid_traci/output_A2C/test_slow_traffic_stats.xml"/>
    </output>

    <time>
        <begin value="0"/>
        <end value="10800"/>
        <step-length value="0.1"/>
    </time>

    <processing>
        <lateral-resolution value="0.1"/>
        <collision.action value="none"/>
        <collision.check-junctions value="false"/>
        <collision.mingap-factor value="0"/>
    </processing>

    <report>
        <no-warnings value="true"/>
    </report>

    <traci_server>
        <remote-port value="8814"/>
    </traci_server>

    <gui_only>
        <delay value="0"/>
    </gui_only>

</sumoConfiguration>
-->

<tripinfos xmlns:xsi="http://www.w3.org/2001/XMLSchema-instance" xsi:noNamespaceSchemaLocation="http://sumo.dlr.de/xsd/tripinfo_file.xsd">
    <tripinfo id="NeighborhoodtoCalamba.0" depart="15.30" departLane="-32425190#1_1" departPos="5.10" departPosLat="0.00" departSpeed="14.32" departDelay="0.00" arrival="64.50" arrivalLane="-32425220#0_2" arrivalPos="290.87" arrivalPosLat="0.00" arrivalSpeed="28.56" duration="49.20" routeLength="1056.50" waitingTime="0.00" waitingCount="0" stopTime="0.00" timeLoss="4.77" rerouteNo="1" devices="tripinfo_NeighborhoodtoCalamba.0 routing_NeighborhoodtoCalamba.0" vType="car" speedFactor="1.03" vaporized=""/>
    <tripinfo id="NeighborhoodtoStaRosa.0" depart="1.20" departLane="-32425190#1_1" departPos="5.10" departPosLat="0.00" departSpeed="14.02" departDelay="0.00" arrival="101.50" arrivalLane="549232953#10_1" arrivalPos="967.06" arrivalPosLat="0.00" arrivalSpeed="27.96" duration="100.30" routeLength="2483.86" waitingTime="0.00" waitingCount="0" stopTime="0.00" timeLoss="3.65" rerouteNo="1" devices="tripinfo_NeighborhoodtoStaRosa.0 routing_NeighborhoodtoStaRosa.0" vType="car" speedFactor="1.01" vaporized=""/>
    <tripinfo id="StaRosatoCalamba.1" depart="6.90" departLane="-549232953#10_2" departPos="7.20" departPosLat="0.00" departSpeed="29.57" departDelay="0.00" arrival="113.60" arrivalLane="-32425220#0_1" arrivalPos="290.87" arrivalPosLat="-0.00" arrivalSpeed="29.57" duration="106.70" routeLength="3150.17" waitingTime="0.00" waitingCount="0" stopTime="0.00" timeLoss="0.14" rerouteNo="1" devices="tripinfo_StaRosatoCalamba.1 routing_StaRosatoCalamba.1" vType="truck" speedFactor="1.06" vaporized=""/>
    <tripinfo id="StaRosatoCalamba.3" depart="16.40" departLane="-549232953#10_2" departPos="5.10" departPosLat="0.00" departSpeed="30.77" departDelay="0.00" arrival="119.10" arrivalLane="-32425220#0_2" arrivalPos="290.87" arrivalPosLat="0.00" arrivalSpeed="30.75" duration="102.70" routeLength="3152.27" waitingTime="0.00" waitingCount="0" stopTime="0.00" timeLoss="0.22" rerouteNo="1" devices="tripinfo_StaRosatoCalamba.3 routing_StaRosatoCalamba.3" vType="car" speedFactor="1.11" vaporized=""/>
    <tripinfo id="StaRosatoCalamba.0" depart="3.00" departLane="-549232953#10_1" departPos="2.30" departPosLat="0.00" departSpeed="25.78" departDelay="0.00" arrival="126.10" arrivalLane="-32425220#0_1" arrivalPos="290.87" arrivalPosLat="0.00" arrivalSpeed="25.54" duration="123.10" routeLength="3155.07" waitingTime="0.00" waitingCount="0" stopTime="0.00" timeLoss="0.70" rerouteNo="1" devices="tripinfo_StaRosatoCalamba.0 routing_StaRosatoCalamba.0" vType="motorcycle" speedFactor="0.93" vaporized=""/>
    <tripinfo id="StaRosatoCalamba.2" depart="8.90" departLane="-549232953#10_1" departPos="2.30" departPosLat="0.00" departSpeed="25.97" departDelay="0.00" arrival="130.60" arrivalLane="-32425220#0_1" arrivalPos="290.87" arrivalPosLat="0.00" arrivalSpeed="25.95" duration="121.70" routeLength="3155.07" waitingTime="0.00" waitingCount="0" stopTime="0.00" timeLoss="0.23" rerouteNo="1" devices="tripinfo_StaRosatoCalamba.2 routing_StaRosatoCalamba.2" vType="tricycle" speedFactor="0.94" vaporized=""/>
    <tripinfo id="CalambatoStaRosa.0" depart="6.60" departLane="32425220#0_1" departPos="7.20" departPosLat="0.00" departSpeed="25.75" departDelay="0.00" arrival="132.20" arrivalLane="549232953#10_1" arrivalPos="967.06" arrivalPosLat="0.00" arrivalSpeed="25.73" duration="125.60" routeLength="3153.47" waitingTime="0.00" waitingCount="0" stopTime="0.00" timeLoss="3.09" rerouteNo="1" devices="tripinfo_CalambatoStaRosa.0 routing_CalambatoStaRosa.0" vType="truck" speedFactor="0.93" vaporized=""/>
    <personinfo id="InasaltoPalengke.0" depart="0.00" type="ped" speedFactor="1.07" duration="153.70" waitingTime="117.50" timeLoss="121.21" traveltime="153.70">
        <walk depart="0.00" departPos="0.00" arrival="153.70" arrivalPos="34.28" duration="153.70" routeLength="48.06" timeLoss="121.21" maxSpeed="1.48" waitingTime="117.50"/>
    </personinfo>
    <personinfo id="SavemoretoJeepPila.0" depart="0.00" type="ped" speedFactor="0.85" duration="154.20" waitingTime="22.60" timeLoss="35.50" traveltime="154.20">
        <walk depart="0.00" departPos="0.00" arrival="154.20" arrivalPos="25.71" duration="154.20" routeLength="140.94" timeLoss="35.50" maxSpeed="1.19" waitingTime="22.60"/>
    </personinfo>
    <personinfo id="PalengketoJeepPila.1" depart="72.00" type="ped" speedFactor="0.87" duration="85.70" waitingTime="31.80" timeLoss="37.29" traveltime="85.70">
        <walk depart="72.00" departPos="0.00" arrival="157.70" arrivalPos="25.71" duration="85.70" routeLength="58.82" timeLoss="37.29" maxSpeed="1.22" waitingTime="31.80"/>
    </personinfo>
    <personinfo id="PalengketoJeepPila.0" depart="0.00" type="ped" speedFactor="0.95" duration="158.10" waitingTime="106.50" timeLoss="113.40" traveltime="158.10">
        <walk depart="0.00" departPos="0.00" arrival="158.10" arrivalPos="25.71" duration="158.10" routeLength="58.82" timeLoss="113.40" maxSpeed="1.32" waitingTime="106.50"/>
    </personinfo>
    <personinfo id="InasaltoPalengke.1" depart="72.00" type="ped" speedFactor="0.92" duration="86.90" waitingTime="44.60" timeLoss="49.19" traveltime="86.90">
        <walk depart="72.00" departPos="0.00" arrival="158.90" arrivalPos="34.28" duration="86.90" routeLength="48.06" timeLoss="49.19" maxSpeed="1.27" waitingTime="44.60"/>
    </personinfo>
    <tripinfo id="CalambatoNeighborhood.0" depart="22.80" departLane="32425220#0_1" departPos="12.10" departPosLat="0.00" departSpeed="27.78" departDelay="0.00" arrival="162.90" arrivalLane="32425190#1_1" arrivalPos="142.43" arrivalPosLat="0.00" arrivalSpeed="13.89" duration="140.10" routeLength="1063.05" waitingTime="83.50" waitingCount="1" stopTime="0.00" timeLoss="93.62" rerouteNo="1" devices="tripinfo_CalambatoNeighborhood.0 routing_CalambatoNeighborhood.0" vType="bus" speedFactor="1.00" vaporized=""/>
    <personinfo id="InasaltoSavemore.0" depart="0.00" type="ped" speedFactor="1.07" duration="165.10" waitingTime="118.00" timeLoss="122.90" traveltime="165.10">
        <walk depart="0.00" departPos="0.00" arrival="165.10" arrivalPos="44.65" duration="165.10" routeLength="62.53" timeLoss="122.90" maxSpeed="1.48" waitingTime="118.00"/>
    </personinfo>
    <personinfo id="SavemoretoInasal.0" depart="0.00" type="ped" speedFactor="1.06" duration="165.40" waitingTime="50.70" timeLoss="123.13" traveltime="165.40">
        <walk depart="0.00" departPos="0.00" arrival="165.40" arrivalPos="44.65" duration="165.40" routeLength="62.53" timeLoss="123.13" maxSpeed="1.48" waitingTime="50.70"/>
    </personinfo>
    <personinfo id="PalengketoInasal.1" depart="72.00" type="ped" speedFactor="0.88" duration="99.10" waitingTime="45.80" timeLoss="51.18" traveltime="99.10">
        <walk depart="72.00" departPos="0.00" arrival="171.10" arrivalPos="44.65" duration="99.10" routeLength="58.43" timeLoss="51.18" maxSpeed="1.22" waitingTime="45.80"/>
    </personinfo>
    <personinfo id="JeepPilatoPalengke.0" depart="0.00" type="ped" speedFactor="1.02" duration="171.20" waitingTime="118.10" timeLoss="123.41" traveltime="171.20">
        <walk depart="0.00" departPos="0.00" arrival="171.20" arrivalPos="34.28" duration="171.20" routeLength="67.39" timeLoss="123.41" maxSpeed="1.41" waitingTime="118.10"/>
    </personinfo>
    <personinfo id="PalengketoInasal.0" depart="0.00" type="ped" speedFactor="0.93" duration="171.60" waitingTime="119.00" timeLoss="126.46" traveltime="171.60">
        <walk depart="0.00" departPos="0.00" arrival="171.60" arrivalPos="44.65" duration="171.60" routeLength="58.43" timeLoss="126.46" maxSpeed="1.29" waitingTime="119.00"/>
    </personinfo>
    <personinfo id="InasaltoSavemore.1" depart="72.00" type="ped" speedFactor="0.89" duration="102.30" waitingTime="45.80" timeLoss="51.67" traveltime="102.30">
        <walk depart="72.00" departPos="0.00" arrival="174.30" arrivalPos="44.65" duration="102.30" routeLength="62.53" timeLoss="51.67" maxSpeed="1.24" waitingTime="45.80"/>
    </personinfo>
    <personinfo id="JeepPilatoSavemore.0" depart="0.00" type="ped" speedFactor="1.07" duration="174.70" waitingTime="117.30" timeLoss="127.21" traveltime="174.70">
        <walk depart="0.00" departPos="0.00" arrival="174.70" arrivalPos="44.65" duration="174.70" routeLength="70.59" timeLoss="127.21" maxSpeed="1.49" waitingTime="117.30"/>
    </personinfo>
    <personinfo id="JeepPilatoSavemore.1" depart="72.00" type="ped" speedFactor="0.94" duration="104.50" waitingTime="44.30" timeLoss="50.27" traveltime="104.50">
        <walk depart="72.00" departPos="0.00" arrival="176.50" arrivalPos="44.65" duration="104.50" routeLength="70.59" timeLoss="50.27" maxSpeed="1.30" waitingTime="44.30"/>
    </personinfo>
    <personinfo id="JeepPilatoPalengke.1" depart="72.00" type="ped" speedFactor="0.82" duration="116.40" waitingTime="50.20" timeLoss="56.87" traveltime="116.40">
        <walk depart="72.00" departPos="0.00" arrival="188.40" arrivalPos="34.28" duration="116.40" routeLength="67.39" timeLoss="56.87" maxSpeed="1.13" waitingTime="50.20"/>
    </personinfo>
    <tripinfo id="Banlic-MamatidtoCalamba.0" depart="13.90" departLane="1346113028#0_1" departPos="5.10" departPosLat="0.00" departSpeed="9.48" departDelay="0.00" arrival="197.20" arrivalLane="-32425220#0_2" arrivalPos="290.87" arrivalPosLat="0.00" arrivalSpeed="31.56" duration="183.30" routeLength="1742.53" waitingTime="50.80" waitingCount="1" stopTime="0.00" timeLoss="64.23" rerouteNo="1" devices="tripinfo_Banlic-MamatidtoCalamba.0 routing_Banlic-MamatidtoCalamba.0" vType="car" speedFactor="1.14" vaporized=""/>
    <tripinfo id="StaRosatoCalamba.4" depart="41.40" departLane="-549232953#10_2" departPos="7.20" departPosLat="0.00" departSpeed="28.95" departDelay="0.00" arrival="200.90" arrivalLane="-32425220#0_1" arrivalPos="290.87" arrivalPosLat="-0.00" arrivalSpeed="28.94" duration="159.50" routeLength="3150.17" waitingTime="27.20" waitingCount="2" stopTime="0.00" timeLoss="50.67" rerouteNo="1" devices="tripinfo_StaRosatoCalamba.4 routing_StaRosatoCalamba.4" vType="truck" speedFactor="1.04" vaporized=""/>
    <tripinfo id="StaRosatoNeighborhood.0" depart="127.10" departLane="-549232953#10_1" departPos="5.10" departPosLat="0.00" departSpeed="34.31" departDelay="0.00" arrival="216.90" arrivalLane="32425190#1_1" arrivalPos="142.43" arrivalPosLat="0.00" arrivalSpeed="17.07" duration="89.80" routeLength="2475.52" waitingTime="0.00" waitingCount="0" stopTime="0.00" timeLoss="11.27" rerouteNo="1" devices="tripinfo_StaRosatoNeighborhood.0 routing_StaRosatoNeighborhood.0" vType="car" speedFactor="1.24" vaporized=""/>
    <tripinfo id="StaRosatoCalamba.6" depart="48.10" departLane="-549232953#10_1" departPos="5.10" departPosLat="0.00" departSpeed="31.49" departDelay="0.00" arrival="222.10" arrivalLane="-32425220#0_1" arrivalPos="290.87" arrivalPosLat="-0.00" arrivalSpeed="31.38" duration="174.00" routeLength="3152.27" waitingTime="61.80" waitingCount="1" stopTime="0.00" timeLoss="73.91" rerouteNo="1" devices="tripinfo_StaRosatoCalamba.6 routing_StaRosatoCalamba.6" vType="car" speedFactor="1.13" vaporized=""/>
    <tripinfo id="CalambatoStaRosa.4" depart="35.30" departLane="32425220#0_2" departPos="2.30" departPosLat="0.00" departSpeed="31.32" departDelay="0.00" arrival="225.90" arrivalLane="549232953#10_2" arrivalPos="967.06" arrivalPosLat="0.00" arrivalSpeed="31.27" duration="190.60" routeLength="3158.37" waitingTime="61.60" waitingCount="2" stopTime="0.00" timeLoss="89.76" rerouteNo="1" devices="tripinfo_CalambatoStaRosa.4 routing_CalambatoStaRosa.4" vType="tricycle" speedFactor="1.13" vaporized=""/>
    <tripinfo id="StaRosatoBanlic-Mamatid.0" depart="18.00" departLane="-549232953#10_1" departPos="2.30" departPosLat="0.00" departSpeed="25.01" departDelay="0.00" arrival="226.20" arrivalLane="-1346113028#0_1" arrivalPos="507.75" arrivalPosLat="0.00" arrivalSpeed="7.47" duration="208.20" routeLength="3138.61" waitingTime="0.00" waitingCount="0" stopTime="0.00" timeLoss="1.50" rerouteNo="1" devices="tripinfo_StaRosatoBanlic-Mamatid.0 routing_StaRosatoBanlic-Mamatid.0" vType="tricycle" speedFactor="0.90" vaporized=""/>
    <tripinfo id="CalambatoStaRosa.1" depart="17.30" departLane="32425220#0_2" departPos="8.10" departPosLat="0.00" departSpeed="27.78" departDelay="0.00" arrival="227.80" arrivalLane="549232953#10_1" arrivalPos="967.06" arrivalPosLat="-0.00" arrivalSpeed="27.78" duration="210.50" routeLength="3152.57" waitingTime="78.20" waitingCount="1" stopTime="0.00" timeLoss="96.99" rerouteNo="1" devices="tripinfo_CalambatoStaRosa.1 routing_CalambatoStaRosa.1" vType="jeep" speedFactor="1.00" vaporized=""/>
    <tripinfo id="CalambatoStaRosa.2" depart="26.60" departLane="32425220#0_2" departPos="12.10" departPosLat="0.00" departSpeed="27.78" departDelay="0.00" arrival="229.20" arrivalLane="549232953#10_1" arrivalPos="967.06" arrivalPosLat="0.00" arrivalSpeed="27.74" duration="202.60" routeLength="3148.57" waitingTime="65.20" waitingCount="1" stopTime="0.00" timeLoss="89.22" rerouteNo="1" devices="tripinfo_CalambatoStaRosa.2 routing_CalambatoStaRosa.2" vType="bus" speedFactor="1.00" vaporized=""/>
    <tripinfo id="StaRosatoCalamba.7" depart="48.40" departLane="-549232953#10_2" departPos="7.20" departPosLat="0.00" departSpeed="27.83" departDelay="0.00" arrival="231.70" arrivalLane="-32425220#0_1" arrivalPos="290.87" arrivalPosLat="-0.00" arrivalSpeed="28.16" duration="183.30" routeLength="3150.17" waitingTime="34.60" waitingCount="2" stopTime="0.00" timeLoss="71.45" rerouteNo="1" devices="tripinfo_StaRosatoCalamba.7 routing_StaRosatoCalamba.7" vType="truck" speedFactor="1.01" vaporized=""/>
    <tripinfo id="StaRosatoCalamba.5" depart="46.60" departLane="-549232953#10_2" departPos="7.20" departPosLat="0.00" departSpeed="26.39" departDelay="0.00" arrival="234.30" arrivalLane="-32425220#0_1" arrivalPos="290.87" arrivalPosLat="-0.00" arrivalSpeed="26.33" duration="187.70" routeLength="3150.17" waitingTime="29.90" waitingCount="2" stopTime="0.00" timeLoss="68.29" rerouteNo="1" devices="tripinfo_StaRosatoCalamba.5 routing_StaRosatoCalamba.5" vType="truck" speedFactor="0.95" vaporized=""/>
    <tripinfo id="CalambatoStaRosa.3" depart="30.30" departLane="32425220#0_1" departPos="2.30" departPosLat="0.00" departSpeed="26.18" departDelay="0.00" arrival="234.70" arrivalLane="549232953#10_1" arrivalPos="967.06" arrivalPosLat="-0.00" arrivalSpeed="26.06" duration="204.40" routeLength="3158.37" waitingTime="66.30" waitingCount="2" stopTime="0.00" timeLoss="83.73" rerouteNo="1" devices="tripinfo_CalambatoStaRosa.3 routing_CalambatoStaRosa.3" vType="motorcycle" speedFactor="0.94" vaporized=""/>
    <tripinfo id="StaRosatoCalamba.9" depart="54.10" departLane="-549232953#10_2" departPos="8.10" departPosLat="0.00" departSpeed="27.78" departDelay="0.00" arrival="235.10" arrivalLane="-32425220#0_2" arrivalPos="290.87" arrivalPosLat="0.00" arrivalSpeed="27.77" duration="181.00" routeLength="3149.27" waitingTime="27.10" waitingCount="1" stopTime="0.00" timeLoss="67.56" rerouteNo="1" devices="tripinfo_StaRosatoCalamba.9 routing_StaRosatoCalamba.9" vType="jeep" speedFactor="1.00" vaporized=""/>
    <tripinfo id="StaRosatoCalamba.8" depart="53.80" departLane="-549232953#10_1" departPos="8.10" departPosLat="0.00" departSpeed="27.78" departDelay="0.00" arrival="235.70" arrivalLane="-32425220#0_1" arrivalPos="290.87" arrivalPosLat="0.00" arrivalSpeed="27.76" duration="181.90" routeLength="3149.27" waitingTime="24.20" waitingCount="1" stopTime="0.00" timeLoss="68.51" rerouteNo="1" devices="tripinfo_StaRosatoCalamba.8 routing_StaRosatoCalamba.8" vType="jeep" speedFactor="1.00" vaporized=""/>
    <tripinfo id="CalambatoStaRosa.6" depart="57.10" departLane="32425220#0_1" departPos="5.10" departPosLat="0.00" departSpeed="27.41" departDelay="0.00" arrival="238.30" arrivalLane="549232953#10_2" arrivalPos="967.06" arrivalPosLat="0.00" arrivalSpeed="27.37" duration="181.20" routeLength="3155.57" waitingTime="39.10" waitingCount="2" stopTime="0.00" timeLoss="66.07" rerouteNo="1" devices="tripinfo_CalambatoStaRosa.6 routing_CalambatoStaRosa.6" vType="car" speedFactor="0.99" vaporized=""/>
    <tripinfo id="StaRosatoCalamba.11" depart="128.20" departLane="-549232953#10_2" departPos="8.10" departPosLat="0.00" departSpeed="27.78" departDelay="0.00" arrival="242.00" arrivalLane="-32425220#0_1" arrivalPos="290.87" arrivalPosLat="-0.00" arrivalSpeed="27.75" duration="113.80" routeLength="3149.27" waitingTime="0.00" waitingCount="0" stopTime="0.00" timeLoss="0.39" rerouteNo="1" devices="tripinfo_StaRosatoCalamba.11 routing_StaRosatoCalamba.11" vType="jeep" speedFactor="1.00" vaporized=""/>
    <tripinfo id="CalambatoStaRosa.7" depart="64.50" departLane="32425220#0_2" departPos="2.30" departPosLat="0.00" departSpeed="25.29" departDelay="0.80" arrival="243.80" arrivalLane="549232953#10_1" arrivalPos="967.06" arrivalPosLat="-0.00" arrivalSpeed="25.23" duration="179.30" routeLength="3158.37" waitingTime="36.60" waitingCount="1" stopTime="0.00" timeLoss="54.35" rerouteNo="1" devices="tripinfo_CalambatoStaRosa.7 routing_CalambatoStaRosa.7" vType="tricycle" speedFactor="0.91" vaporized=""/>
    <tripinfo id="StaRosatoCalamba.12" depart="129.90" departLane="-549232953#10_1" departPos="8.10" departPosLat="0.00" departSpeed="27.78" departDelay="0.00" arrival="243.90" arrivalLane="-32425220#0_1" arrivalPos="290.87" arrivalPosLat="-0.00" arrivalSpeed="27.77" duration="114.00" routeLength="3149.27" waitingTime="0.00" waitingCount="0" stopTime="0.00" timeLoss="0.62" rerouteNo="1" devices="tripinfo_StaRosatoCalamba.12 routing_StaRosatoCalamba.12" vType="jeep" speedFactor="1.00" vaporized=""/>
    <tripinfo id="NeighborhoodtoStaRosa.1" depart="92.30" departLane="-32425190#1_1" departPos="2.30" departPosLat="0.00" departSpeed="11.28" departDelay="0.00" arrival="247.00" arrivalLane="549232953#10_1" arrivalPos="967.06" arrivalPosLat="0.00" arrivalSpeed="22.51" duration="154.70" routeLength="2486.66" waitingTime="24.40" waitingCount="2" stopTime="0.00" timeLoss="34.42" rerouteNo="1" devices="tripinfo_NeighborhoodtoStaRosa.1 routing_NeighborhoodtoStaRosa.1" vType="tricycle" speedFactor="0.81" vaporized=""/>
    <tripinfo id="CalambatoBanlic-Mamatid.0" depart="40.30" departLane="32425220#0_1" departPos="5.10" departPosLat="0.00" departSpeed="29.05" departDelay="0.00" arrival="247.50" arrivalLane="-1346113028#0_1" arrivalPos="507.75" arrivalPosLat="0.00" arrivalSpeed="8.65" duration="207.20" routeLength="1737.47" waitingTime="55.40" waitingCount="1" stopTime="0.00" timeLoss="77.70" rerouteNo="1" devices="tripinfo_CalambatoBanlic-Mamatid.0 routing_CalambatoBanlic-Mamatid.0" vType="car" speedFactor="1.05" vaporized=""/>
    <tripinfo id="StaRosatoCalamba.10" depart="125.80" departLane="-549232953#10_2" departPos="7.20" departPosLat="0.00" departSpeed="25.39" departDelay="0.00" arrival="250.10" arrivalLane="-32425220#0_1" arrivalPos="290.87" arrivalPosLat="-0.00" arrivalSpeed="25.37" duration="124.30" routeLength="3150.17" waitingTime="0.00" waitingCount="0" stopTime="0.00" timeLoss="0.16" rerouteNo="1" devices="tripinfo_StaRosatoCalamba.10 routing_StaRosatoCalamba.10" vType="truck" speedFactor="0.91" vaporized=""/>
    <tripinfo id="CalambatoBanlic-Mamatid.1" depart="54.60" departLane="32425220#0_1" departPos="5.10" departPosLat="0.00" departSpeed="28.75" departDelay="0.00" arrival="250.70" arrivalLane="-1346113028#0_1" arrivalPos="507.75" arrivalPosLat="0.00" arrivalSpeed="8.50" duration="196.10" routeLength="1737.47" waitingTime="42.00" waitingCount="1" stopTime="0.00" timeLoss="65.22" rerouteNo="1" devices="tripinfo_CalambatoBanlic-Mamatid.1 routing_CalambatoBanlic-Mamatid.1" vType="car" speedFactor="1.03" vaporized=""/>
    <tripinfo id="CalambatoStaRosa.5" depart="56.20" departLane="32425220#0_2" departPos="2.30" departPosLat="0.00" departSpeed="21.39" departDelay="0.00" arrival="251.80" arrivalLane="549232953#10_1" arrivalPos="967.06" arrivalPosLat="-0.00" arrivalSpeed="21.15" duration="195.60" routeLength="3158.37" waitingTime="36.40" waitingCount="2" stopTime="0.00" timeLoss="47.87" rerouteNo="1" devices="tripinfo_CalambatoStaRosa.5 routing_CalambatoStaRosa.5" vType="motorcycle" speedFactor="0.77" vaporized=""/>
    <personinfo id="SavemoretoJeepPila.1" depart="72.00" type="ped" speedFactor="1.17" duration="184.90" waitingTime="87.50" timeLoss="98.09" traveltime="184.90">
        <walk depart="72.00" departPos="0.00" arrival="256.90" arrivalPos="25.71" duration="184.90" routeLength="140.94" timeLoss="98.09" maxSpeed="1.62" waitingTime="87.50"/>
    </personinfo>
    <personinfo id="InasaltoJeepPila.0" depart="0.00" type="ped" speedFactor="0.97" duration="262.90" waitingTime="207.00" timeLoss="212.97" traveltime="262.90">
        <walk depart="0.00" departPos="0.00" arrival="262.90" arrivalPos="25.71" duration="262.90" routeLength="67.08" timeLoss="212.97" maxSpeed="1.34" waitingTime="207.00"/>
    </personinfo>
    <personinfo id="PalengketoJeepPila.3" depart="216.00" type="ped" speedFactor="1.11" duration="47.20" waitingTime="2.00" timeLoss="9.00" traveltime="47.20">
        <walk depart="216.00" departPos="0.00" arrival="263.20" arrivalPos="25.71" duration="47.20" routeLength="58.82" timeLoss="9.00" maxSpeed="1.54" waitingTime="2.00"/>
    </personinfo>
    <personinfo id="SavemoretoJeepPila.2" depart="144.00" type="ped" speedFactor="1.02" duration="119.70" waitingTime="3.70" timeLoss="19.90" traveltime="119.70">
        <walk depart="144.00" departPos="0.00" arrival="263.70" arrivalPos="25.71" duration="119.70" routeLength="140.94" timeLoss="19.90" maxSpeed="1.41" waitingTime="3.70"/>
    </personinfo>
    <personinfo id="InasaltoJeepPila.1" depart="72.00" type="ped" speedFactor="0.89" duration="192.00" waitingTime="131.20" timeLoss="137.46" traveltime="192.00">
        <walk depart="72.00" departPos="0.00" arrival="264.00" arrivalPos="25.71" duration="192.00" routeLength="67.08" timeLoss="137.46" maxSpeed="1.23" waitingTime="131.20"/>
    </personinfo>
    <personinfo id="PalengketoJeepPila.2" depart="144.00" type="ped" speedFactor="1.03" duration="120.90" waitingTime="75.10" timeLoss="79.98" traveltime="120.90">
        <walk depart="144.00" departPos="0.00" arrival="264.90" arrivalPos="25.71" duration="120.90" routeLength="58.82" timeLoss="79.98" maxSpeed="1.44" waitingTime="75.10"/>
    </personinfo>
    <personinfo id="SavemoretoPalengke.0" depart="0.00" type="ped" speedFactor="1.06" duration="265.20" waitingTime="150.10" timeLoss="162.19" traveltime="265.20">
        <walk depart="0.00" departPos="0.00" arrival="265.20" arrivalPos="34.28" duration="265.20" routeLength="151.65" timeLoss="162.19" maxSpeed="1.47" waitingTime="150.10"/>
    </personinfo>
    <personinfo id="InasaltoPalengke.3" depart="216.00" type="ped" speedFactor="0.96" duration="51.30" waitingTime="10.80" timeLoss="15.08" traveltime="51.30">
        <walk depart="216.00" departPos="0.00" arrival="267.30" arrivalPos="34.28" duration="51.30" routeLength="48.06" timeLoss="15.08" maxSpeed="1.33" waitingTime="10.80"/>
    </personinfo>
    <tripinfo id="CalambatoNeighborhood.1" depart="87.10" departLane="32425220#0_2" departPos="2.30" departPosLat="0.00" departSpeed="26.94" departDelay="0.00" arrival="268.90" arrivalLane="32425190#1_1" arrivalPos="142.43" arrivalPosLat="0.00" arrivalSpeed="13.36" duration="181.80" routeLength="1072.85" waitingTime="116.30" waitingCount="2" stopTime="0.00" timeLoss="133.46" rerouteNo="1" devices="tripinfo_CalambatoNeighborhood.1 routing_CalambatoNeighborhood.1" vType="motorcycle" speedFactor="0.97" vaporized=""/>
    <personinfo id="InasaltoPalengke.2" depart="144.00" type="ped" speedFactor="0.93" duration="125.40" waitingTime="83.90" timeLoss="88.07" traveltime="125.40">
        <walk depart="144.00" departPos="0.00" arrival="269.40" arrivalPos="34.28" duration="125.40" routeLength="48.06" timeLoss="88.07" maxSpeed="1.29" waitingTime="83.90"/>
    </personinfo>
    <tripinfo id="CalambatoBanlic-Mamatid.2" depart="62.80" departLane="32425220#0_1" departPos="5.10" departPosLat="0.00" departSpeed="25.82" departDelay="0.00" arrival="270.10" arrivalLane="-1346113028#0_1" arrivalPos="507.75" arrivalPosLat="0.00" arrivalSpeed="7.68" duration="207.30" routeLength="1737.47" waitingTime="31.00" waitingCount="2" stopTime="0.00" timeLoss="61.59" rerouteNo="1" devices="tripinfo_CalambatoBanlic-Mamatid.2 routing_CalambatoBanlic-Mamatid.2" vType="car" speedFactor="0.93" vaporized=""/>
    <personinfo id="PalengketoInasal.2" depart="144.00" type="ped" speedFactor="0.99" duration="132.30" waitingTime="84.90" timeLoss="89.70" traveltime="132.30">
        <walk depart="144.00" departPos="0.00" arrival="276.30" arrivalPos="44.65" duration="132.30" routeLength="58.43" timeLoss="89.70" maxSpeed="1.37" waitingTime="84.90"/>
    </personinfo>
    <tripinfo id="CalambatoBanlic-Mamatid.3" depart="104.70" departLane="32425220#0_1" departPos="2.30" departPosLat="0.00" departSpeed="25.10" departDelay="0.00" arrival="276.30" arrivalLane="-1346113028#0_1" arrivalPos="507.75" arrivalPosLat="0.00" arrivalSpeed="7.30" duration="171.60" routeLength="1740.27" waitingTime="0.30" waitingCount="1" stopTime="0.00" timeLoss="21.62" rerouteNo="1" devices="tripinfo_CalambatoBanlic-Mamatid.3 routing_CalambatoBanlic-Mamatid.3" vType="motorcycle" speedFactor="0.90" vaporized=""/>
    <personinfo id="PalengketoInasal.3" depart="216.00" type="ped" speedFactor="0.98" duration="60.70" waitingTime="12.90" timeLoss="17.75" traveltime="60.70">
        <walk depart="216.00" departPos="0.00" arrival="276.70" arrivalPos="44.65" duration="60.70" routeLength="58.43" timeLoss="17.75" maxSpeed="1.36" waitingTime="12.90"/>
    </personinfo>
    <personinfo id="JeepPilatoInasal.1" depart="72.00" type="ped" speedFactor="1.03" duration="205.30" waitingTime="138.60" timeLoss="145.31" traveltime="205.30">
        <walk depart="72.00" departPos="0.00" arrival="277.30" arrivalPos="44.65" duration="205.30" routeLength="86.02" timeLoss="145.31" maxSpeed="1.43" waitingTime="138.60"/>
    </personinfo>
    <tripinfo id="CalambatoNeighborhood.2" depart="156.50" departLane="32425220#0_2" departPos="5.10" departPosLat="0.00" departSpeed="28.41" departDelay="0.00" arrival="278.40" arrivalLane="32425190#1_1" arrivalPos="142.43" arrivalPosLat="0.00" arrivalSpeed="14.11" duration="121.90" routeLength="1070.05" waitingTime="61.50" waitingCount="2" stopTime="0.00" timeLoss="76.14" rerouteNo="1" devices="tripinfo_CalambatoNeighborhood.2 routing_CalambatoNeighborhood.2" vType="car" speedFactor="1.02" vaporized=""/>
    <personinfo id="PalengketoSavemore.1" depart="72.00" type="ped" speedFactor="1.00" duration="206.50" waitingTime="148.70" timeLoss="154.37" traveltime="206.50">
        <walk depart="72.00" departPos="0.00" arrival="278.50" arrivalPos="44.65" duration="206.50" routeLength="72.73" timeLoss="154.37" maxSpeed="1.40" waitingTime="148.70"/>
    </personinfo>
    <personinfo id="JeepPilatoInasal.0" depart="0.00" type="ped" speedFactor="0.98" duration="280.10" waitingTime="209.40" timeLoss="216.72" traveltime="280.10">
        <walk depart="0.00" departPos="0.00" arrival="280.10" arrivalPos="44.65" duration="280.10" routeLength="86.02" timeLoss="216.72" maxSpeed="1.36" waitingTime="209.40"/>
    </personinfo>
    <personinfo id="InasaltoSavemore.2" depart="144.00" type="ped" speedFactor="0.98" duration="136.30" waitingTime="84.70" timeLoss="90.13" traveltime="136.30">
        <walk depart="144.00" departPos="0.00" arrival="280.30" arrivalPos="44.65" duration="136.30" routeLength="62.53" timeLoss="90.13" maxSpeed="1.35" waitingTime="84.70"/>
    </personinfo>
    <personinfo id="InasaltoSavemore.3" depart="216.00" type="ped" speedFactor="0.99" duration="64.70" waitingTime="13.50" timeLoss="19.02" traveltime="64.70">
        <walk depart="216.00" departPos="0.00" arrival="280.70" arrivalPos="44.65" duration="64.70" routeLength="62.53" timeLoss="19.02" maxSpeed="1.37" waitingTime="13.50"/>
    </personinfo>
    <personinfo id="SavemoretoInasal.1" depart="72.00" type="ped" speedFactor="0.96" duration="209.20" waitingTime="82.40" timeLoss="162.14" traveltime="209.20">
        <walk depart="72.00" departPos="0.00" arrival="281.20" arrivalPos="44.65" duration="209.20" routeLength="62.53" timeLoss="162.14" maxSpeed="1.33" waitingTime="82.40"/>
    </personinfo>
    <personinfo id="SavemoretoInasal.2" depart="144.00" type="ped" speedFactor="0.97" duration="137.70" waitingTime="12.00" timeLoss="91.20" traveltime="137.70">