<?xml version="1.0" encoding="UTF-8"?>

<!-- generated on 2026-02-24 18:07:08 by Eclipse SUMO sumo Version 1.24.0
<sumoConfiguration xmlns:xsi="http://www.w3.org/2001/XMLSchema-instance" xsi:noNamespaceSchemaLocation="http://sumo.dlr.de/xsd/sumoConfiguration.xsd">

    <input>
        <net-file value="Banlic-Mamatid_traci/network/banlic-mamatid_signalized.net.xml"/>
        <route-files value="Banlic-Mamatid_traci/demand/flows_traffic_jam.rou.xml"/>
        <additional-files value="Banlic-Mamatid_traci/additionals/banlic-mamatid.poly.xml,Banlic-Mamatid_traci/ additionals/banlic-mamatid.add.xml"/>
    </input>

    <output>
        <tripinfo-output value="Banlic-Mamatid_traci/output_DDPG/test_jam_trips.xml"/>
        <statistic-output value="Banlic-Mamatid_traci/output_DDPG/test_jam_stats.xml"/>
    </output>

    <time>
        <begin value="0"/>
        <end value="10800"/>
        <step-length value="0.1"/>
    </time>

    <processing>
        <lateral-resolution value="0.1"/>
        <collision.action value="none"/>
        <collision.check-junctions value="false"/>
        <collision.mingap-factor value="0"/>
    </processing>

    <report>
        <no-warnings value="true"/>
    </report>

    <traci_server>
        <remote-port value="57095"/>
    </traci_server>

    <gui_only>
        <delay value="0"/>
    </gui_only>

</sumoConfiguration>
-->

<tripinfos xmlns:xsi="http://www.w3.org/2001/XMLSchema-instance" xsi:noNamespaceSchemaLocation="http://sumo.dlr.de/xsd/tripinfo_file.xsd">
    <tripinfo id="NeighborhoodtoCalamba.0" depart="15.30" departLane="-32425190#1_1" departPos="5.10" departPosLat="0.00" departSpeed="15.01" departDelay="0.00" arrival="62.70" arrivalLane="-32425220#0_2" arrivalPos="290.87" arrivalPosLat="0.00" arrivalSpeed="29.95" duration="47.40" routeLength="1056.50" waitingTime="0.00" waitingCount="0" stopTime="0.00" timeLoss="4.96" rerouteNo="1" devices="tripinfo_NeighborhoodtoCalamba.0 routing_NeighborhoodtoCalamba.0" vType="car" speedFactor="1.08" vaporized=""/>
    <tripinfo id="CalambatoNeighborhood.0" depart="22.80" departLane="32425220#0_2" departPos="2.30" departPosLat="0.00" departSpeed="30.60" departDelay="0.00" arrival="66.60" arrivalLane="32425190#1_1" arrivalPos="142.43" arrivalPosLat="0.00" arrivalSpeed="15.13" duration="43.80" routeLength="1072.85" waitingTime="0.00" waitingCount="0" stopTime="0.00" timeLoss="1.23" rerouteNo="1" devices="tripinfo_CalambatoNeighborhood.0 routing_CalambatoNeighborhood.0" vType="motorcycle" speedFactor="1.10" vaporized=""/>
    <tripinfo id="NeighborhoodtoStaRosa.0" depart="1.20" departLane="-32425190#1_1" departPos="2.30" departPosLat="0.00" departSpeed="15.14" departDelay="0.00" arrival="95.50" arrivalLane="549232953#10_1" arrivalPos="967.06" arrivalPosLat="0.00" arrivalSpeed="30.26" duration="94.30" routeLength="2486.66" waitingTime="0.00" waitingCount="0" stopTime="0.00" timeLoss="4.69" rerouteNo="1" devices="tripinfo_NeighborhoodtoStaRosa.0 routing_NeighborhoodtoStaRosa.0" vType="tricycle" speedFactor="1.09" vaporized=""/>
    <tripinfo id="CalambatoStaRosa.2" depart="17.30" departLane="32425220#0_1" departPos="5.10" departPosLat="0.00" departSpeed="28.21" departDelay="0.00" arrival="130.20" arrivalLane="549232953#10_1" arrivalPos="967.06" arrivalPosLat="1.45" arrivalSpeed="28.15" duration="112.90" routeLength="3155.57" waitingTime="0.00" waitingCount="0" stopTime="0.00" timeLoss="0.95" rerouteNo="1" devices="tripinfo_CalambatoStaRosa.2 routing_CalambatoStaRosa.2" vType="car" speedFactor="1.02" vaporized=""/>
    <tripinfo id="CalambatoStaRosa.0" depart="6.60" departLane="32425220#0_1" departPos="5.10" departPosLat="0.00" departSpeed="27.45" departDelay="0.00" arrival="133.30" arrivalLane="549232953#10_1" arrivalPos="967.06" arrivalPosLat="0.00" arrivalSpeed="27.38" duration="126.70" routeLength="3155.57" waitingTime="1.50" waitingCount="1" stopTime="0.00" timeLoss="11.71" rerouteNo="1" devices="tripinfo_CalambatoStaRosa.0 routing_CalambatoStaRosa.0" vType="car" speedFactor="0.99" vaporized=""/>
    <tripinfo id="StaRosatoCalamba.2" depart="8.90" departLane="-549232953#10_1" departPos="5.10" departPosLat="0.00" departSpeed="30.26" departDelay="0.00" arrival="135.60" arrivalLane="-32425220#0_1" arrivalPos="290.87" arrivalPosLat="1.05" arrivalSpeed="30.20" duration="126.70" routeLength="3152.27" waitingTime="10.10" waitingCount="1" stopTime="0.00" timeLoss="22.49" rerouteNo="1" devices="tripinfo_StaRosatoCalamba.2 routing_StaRosatoCalamba.2" vType="car" speedFactor="1.09" vaporized=""/>
    <tripinfo id="StaRosatoCalamba.1" depart="6.90" departLane="-549232953#10_2" departPos="2.30" departPosLat="0.00" departSpeed="33.73" departDelay="0.00" arrival="136.80" arrivalLane="-32425220#0_1" arrivalPos="290.87" arrivalPosLat="-0.00" arrivalSpeed="32.24" duration="129.90" routeLength="3155.07" waitingTime="22.80" waitingCount="1" stopTime="0.00" timeLoss="36.36" rerouteNo="1" devices="tripinfo_StaRosatoCalamba.1 routing_StaRosatoCalamba.1" vType="tricycle" speedFactor="1.21" vaporized=""/>
    <tripinfo id="StaRosatoNeighborhood.0" depart="31.00" departLane="-549232953#10_2" departPos="8.10" departPosLat="0.00" departSpeed="27.78" departDelay="0.00" arrival="137.10" arrivalLane="32425190#1_1" arrivalPos="142.43" arrivalPosLat="-0.00" arrivalSpeed="13.86" duration="106.10" routeLength="2472.52" waitingTime="0.00" waitingCount="0" stopTime="0.00" timeLoss="9.23" rerouteNo="1" devices="tripinfo_StaRosatoNeighborhood.0 routing_StaRosatoNeighborhood.0" vType="jeep" speedFactor="1.00" vaporized=""/>
    <tripinfo id="CalambatoStaRosa.1" depart="8.10" departLane="32425220#0_2" departPos="5.10" departPosLat="0.00" departSpeed="24.56" departDelay="0.00" arrival="138.30" arrivalLane="549232953#10_1" arrivalPos="967.06" arrivalPosLat="-0.00" arrivalSpeed="24.54" duration="130.20" routeLength="3155.57" waitingTime="0.00" waitingCount="0" stopTime="0.00" timeLoss="1.70" rerouteNo="1" devices="tripinfo_CalambatoStaRosa.1 routing_CalambatoStaRosa.1" vType="car" speedFactor="0.88" vaporized=""/>
    <tripinfo id="CalambatoStaRosa.3" depart="26.60" departLane="32425220#0_1" departPos="5.10" departPosLat="0.00" departSpeed="27.38" departDelay="0.00" arrival="142.20" arrivalLane="549232953#10_1" arrivalPos="967.06" arrivalPosLat="0.00" arrivalSpeed="27.37" duration="115.60" routeLength="3155.57" waitingTime="0.00" waitingCount="0" stopTime="0.00" timeLoss="0.27" rerouteNo="1" devices="tripinfo_CalambatoStaRosa.3 routing_CalambatoStaRosa.3" vType="car" speedFactor="0.99" vaporized=""/>
    <tripinfo id="StaRosatoCalamba.5" depart="29.30" departLane="-549232953#10_1" departPos="7.20" departPosLat="0.00" departSpeed="27.63" departDelay="0.00" arrival="143.50" arrivalLane="-32425220#0_2" arrivalPos="290.87" arrivalPosLat="0.00" arrivalSpeed="27.60" duration="114.20" routeLength="3150.17" waitingTime="0.00" waitingCount="0" stopTime="0.00" timeLoss="0.13" rerouteNo="1" devices="tripinfo_StaRosatoCalamba.5 routing_StaRosatoCalamba.5" vType="truck" speedFactor="0.99" vaporized=""/>
    <tripinfo id="StaRosatoCalamba.4" depart="27.10" departLane="-549232953#10_2" departPos="5.10" departPosLat="0.00" departSpeed="29.41" departDelay="0.00" arrival="145.00" arrivalLane="-32425220#0_2" arrivalPos="290.87" arrivalPosLat="0.00" arrivalSpeed="29.40" duration="117.90" routeLength="3152.27" waitingTime="0.00" waitingCount="0" stopTime="0.00" timeLoss="10.63" rerouteNo="1" devices="tripinfo_StaRosatoCalamba.4 routing_StaRosatoCalamba.4" vType="car" speedFactor="1.06" vaporized=""/>
    <tripinfo id="CalambatoStaRosa.4" depart="30.30" departLane="32425220#0_2" departPos="7.20" departPosLat="0.00" departSpeed="27.43" departDelay="0.00" arrival="145.40" arrivalLane="549232953#10_1" arrivalPos="967.06" arrivalPosLat="-0.00" arrivalSpeed="27.42" duration="115.10" routeLength="3153.47" waitingTime="0.00" waitingCount="0" stopTime="0.00" timeLoss="0.14" rerouteNo="1" devices="tripinfo_CalambatoStaRosa.4 routing_CalambatoStaRosa.4" vType="truck" speedFactor="0.99" vaporized=""/>
    <tripinfo id="StaRosatoCalamba.0" depart="3.00" departLane="-549232953#10_1" departPos="7.20" departPosLat="0.00" departSpeed="24.77" departDelay="0.00" arrival="147.60" arrivalLane="-32425220#0_1" arrivalPos="290.87" arrivalPosLat="0.00" arrivalSpeed="24.73" duration="144.60" routeLength="3150.17" waitingTime="0.00" waitingCount="0" stopTime="0.00" timeLoss="17.44" rerouteNo="1" devices="tripinfo_StaRosatoCalamba.0 routing_StaRosatoCalamba.0" vType="truck" speedFactor="0.89" vaporized=""/>
    <tripinfo id="StaRosatoCalamba.6" depart="41.40" departLane="-549232953#10_1" departPos="5.10" departPosLat="0.00" departSpeed="28.87" departDelay="0.00" arrival="154.00" arrivalLane="-32425220#0_2" arrivalPos="290.87" arrivalPosLat="0.00" arrivalSpeed="28.83" duration="112.60" routeLength="3152.27" waitingTime="0.00" waitingCount="0" stopTime="0.00" timeLoss="3.39" rerouteNo="1" devices="tripinfo_StaRosatoCalamba.6 routing_StaRosatoCalamba.6" vType="car" speedFactor="1.04" vaporized=""/>
    <tripinfo id="StaRosatoCalamba.3" depart="16.40" departLane="-549232953#10_2" departPos="5.10" departPosLat="0.00" departSpeed="22.87" departDelay="0.00" arrival="154.70" arrivalLane="-32425220#0_1" arrivalPos="290.87" arrivalPosLat="-0.00" arrivalSpeed="22.77" duration="138.30" routeLength="3152.27" waitingTime="0.00" waitingCount="0" stopTime="0.00" timeLoss="0.40" rerouteNo="1" devices="tripinfo_StaRosatoCalamba.3 routing_StaRosatoCalamba.3" vType="car" speedFactor="0.82" vaporized=""/>
    <tripinfo id="StaRosatoCalamba.9" depart="48.10" departLane="-549232953#10_1" departPos="2.30" departPosLat="0.00" departSpeed="32.47" departDelay="0.00" arrival="161.20" arrivalLane="-32425220#0_1" arrivalPos="290.87" arrivalPosLat="0.00" arrivalSpeed="32.22" duration="113.10" routeLength="3155.07" waitingTime="6.00" waitingCount="1" stopTime="0.00" timeLoss="15.93" rerouteNo="1" devices="tripinfo_StaRosatoCalamba.9 routing_StaRosatoCalamba.9" vType="motorcycle" speedFactor="1.17" vaporized=""/>
    <tripinfo id="StaRosatoNeighborhood.1" depart="61.00" departLane="-549232953#10_1" departPos="2.30" departPosLat="0.00" departSpeed="31.90" departDelay="0.00" arrival="168.20" arrivalLane="32425190#1_1" arrivalPos="142.43" arrivalPosLat="0.00" arrivalSpeed="15.85" duration="107.20" routeLength="2478.32" waitingTime="0.00" waitingCount="0" stopTime="0.00" timeLoss="22.60" rerouteNo="1" devices="tripinfo_StaRosatoNeighborhood.1 routing_StaRosatoNeighborhood.1" vType="tricycle" speedFactor="1.15" vaporized=""/>
    <tripinfo id="StaRosatoCalamba.11" depart="53.80" departLane="-549232953#10_1" departPos="5.10" departPosLat="0.00" departSpeed="27.72" departDelay="0.00" arrival="183.20" arrivalLane="-32425220#0_2" arrivalPos="290.87" arrivalPosLat="0.00" arrivalSpeed="27.61" duration="129.40" routeLength="3152.27" waitingTime="0.00" waitingCount="0" stopTime="0.00" timeLoss="15.60" rerouteNo="1" devices="tripinfo_StaRosatoCalamba.11 routing_StaRosatoCalamba.11" vType="car" speedFactor="1.00" vaporized=""/>
    <tripinfo id="StaRosatoCalamba.7" depart="44.80" departLane="-549232953#10_1" departPos="5.10" departPosLat="0.00" departSpeed="24.74" departDelay="0.00" arrival="184.90" arrivalLane="-32425220#0_1" arrivalPos="290.87" arrivalPosLat="0.00" arrivalSpeed="24.69" duration="140.10" routeLength="3152.27" waitingTime="3.40" waitingCount="1" stopTime="0.00" timeLoss="12.64" rerouteNo="1" devices="tripinfo_StaRosatoCalamba.7 routing_StaRosatoCalamba.7" vType="car" speedFactor="0.89" vaporized=""/>
    <tripinfo id="StaRosatoCalamba.10" depart="48.40" departLane="-549232953#10_2" departPos="2.30" departPosLat="0.00" departSpeed="27.86" departDelay="0.00" arrival="187.00" arrivalLane="-32425220#0_2" arrivalPos="290.87" arrivalPosLat="0.00" arrivalSpeed="27.77" duration="138.60" routeLength="3155.07" waitingTime="0.00" waitingCount="0" stopTime="0.00" timeLoss="25.33" rerouteNo="1" devices="tripinfo_StaRosatoCalamba.10 routing_StaRosatoCalamba.10" vType="tricycle" speedFactor="1.00" vaporized=""/>
    <tripinfo id="StaRosatoCalamba.14" depart="69.40" departLane="-549232953#10_1" departPos="2.30" departPosLat="0.00" departSpeed="28.64" departDelay="0.00" arrival="188.20" arrivalLane="-32425220#0_2" arrivalPos="290.87" arrivalPosLat="0.00" arrivalSpeed="28.62" duration="118.80" routeLength="3155.07" waitingTime="0.00" waitingCount="0" stopTime="0.00" timeLoss="8.54" rerouteNo="1" devices="tripinfo_StaRosatoCalamba.14 routing_StaRosatoCalamba.14" vType="tricycle" speedFactor="1.03" vaporized=""/>
    <tripinfo id="StaRosatoCalamba.8" depart="46.60" departLane="-549232953#10_2" departPos="5.10" departPosLat="0.00" departSpeed="25.03" departDelay="0.00" arrival="189.10" arrivalLane="-32425220#0_1" arrivalPos="290.87" arrivalPosLat="-0.00" arrivalSpeed="25.02" duration="142.50" routeLength="3152.27" waitingTime="0.00" waitingCount="0" stopTime="0.00" timeLoss="16.54" rerouteNo="1" devices="tripinfo_StaRosatoCalamba.8 routing_StaRosatoCalamba.8" vType="car" speedFactor="0.90" vaporized=""/>
    <tripinfo id="StaRosatoCalamba.12" depart="54.10" departLane="-549232953#10_2" departPos="5.10" departPosLat="0.00" departSpeed="27.92" departDelay="0.00" arrival="190.40" arrivalLane="-32425220#0_1" arrivalPos="290.87" arrivalPosLat="-0.00" arrivalSpeed="27.40" duration="136.30" routeLength="3152.27" waitingTime="0.00" waitingCount="0" stopTime="0.00" timeLoss="23.34" rerouteNo="1" devices="tripinfo_StaRosatoCalamba.12 routing_StaRosatoCalamba.12" vType="car" speedFactor="1.01" vaporized=""/>
    <tripinfo id="StaRosatoCalamba.13" depart="67.10" departLane="-549232953#10_2" departPos="5.10" departPosLat="0.00" departSpeed="27.11" departDelay="0.00" arrival="191.60" arrivalLane="-32425220#0_1" arrivalPos="290.87" arrivalPosLat="-0.00" arrivalSpeed="27.09" duration="124.50" routeLength="3152.27" waitingTime="0.00" waitingCount="0" stopTime="0.00" timeLoss="8.20" rerouteNo="1" devices="tripinfo_StaRosatoCalamba.13 routing_StaRosatoCalamba.13" vType="car" speedFactor="0.98" vaporized=""/>
    <tripinfo id="StaRosatoCalamba.15" depart="81.40" departLane="-549232953#10_2" departPos="2.30" departPosLat="0.00" departSpeed="27.27" departDelay="0.00" arrival="197.80" arrivalLane="-32425220#0_1" arrivalPos="290.87" arrivalPosLat="-0.00" arrivalSpeed="27.06" duration="116.40" routeLength="3155.07" waitingTime="0.00" waitingCount="0" stopTime="0.00" timeLoss="0.64" rerouteNo="1" devices="tripinfo_StaRosatoCalamba.15 routing_StaRosatoCalamba.15" vType="motorcycle" speedFactor="0.98" vaporized=""/>
    <tripinfo id="StaRosatoBanlic-Mamatid.0" depart="18.00" departLane="-549232953#10_1" departPos="5.10" departPosLat="0.00" departSpeed="30.31" departDelay="0.00" arrival="199.30" arrivalLane="-1346113028#0_1" arrivalPos="507.75" arrivalPosLat="0.00" arrivalSpeed="9.08" duration="181.30" routeLength="3135.81" waitingTime="0.00" waitingCount="0" stopTime="0.00" timeLoss="10.81" rerouteNo="1" devices="tripinfo_StaRosatoBanlic-Mamatid.0 routing_StaRosatoBanlic-Mamatid.0" vType="car" speedFactor="1.09" vaporized=""/>
    <personinfo id="SavemoretoJeepPila.1" depart="48.00" type="ped" speedFactor="1.03" duration="154.60" waitingTime="45.00" timeLoss="56.32" traveltime="154.60">
        <walk depart="48.00" departPos="0.00" arrival="202.60" arrivalPos="25.71" duration="154.60" routeLength="140.94" timeLoss="56.32" maxSpeed="1.43" waitingTime="45.00"/>
    </personinfo>
    <personinfo id="SavemoretoJeepPila.0" depart="0.00" type="ped" speedFactor="0.98" duration="205.90" waitingTime="91.30" timeLoss="102.87" traveltime="205.90">
        <walk depart="0.00" departPos="0.00" arrival="205.90" arrivalPos="25.71" duration="205.90" routeLength="140.94" timeLoss="102.87" maxSpeed="1.37" waitingTime="91.30"/>
    </personinfo>
    <personinfo id="InasaltoPalengke.3" depart="144.00" type="ped" speedFactor="1.03" duration="63.60" waitingTime="26.40" timeLoss="30.06" traveltime="63.60">
        <walk depart="144.00" departPos="0.00" arrival="207.60" arrivalPos="34.28" duration="63.60" routeLength="48.06" timeLoss="30.06" maxSpeed="1.43" waitingTime="26.40"/>
    </personinfo>
    <personinfo id="InasaltoPalengke.1" depart="48.00" type="ped" speedFactor="1.06" duration="160.90" waitingTime="123.90" timeLoss="128.13" traveltime="160.90">
        <walk depart="48.00" departPos="0.00" arrival="208.90" arrivalPos="34.28" duration="160.90" routeLength="48.06" timeLoss="128.13" maxSpeed="1.47" waitingTime="123.90"/>
    </personinfo>
    <personinfo id="InasaltoPalengke.0" depart="0.00" type="ped" speedFactor="1.14" duration="209.20" waitingTime="174.40" timeLoss="178.75" traveltime="209.20">
        <walk depart="0.00" departPos="0.00" arrival="209.20" arrivalPos="34.28" duration="209.20" routeLength="48.06" timeLoss="178.75" maxSpeed="1.58" waitingTime="174.40"/>
    </personinfo>
    <personinfo id="InasaltoPalengke.2" depart="96.00" type="ped" speedFactor="0.88" duration="117.40" waitingTime="73.90" timeLoss="78.14" traveltime="117.40">
        <walk depart="96.00" departPos="0.00" arrival="213.40" arrivalPos="34.28" duration="117.40" routeLength="48.06" timeLoss="78.14" maxSpeed="1.22" waitingTime="73.90"/>
    </personinfo>
    <personinfo id="PalengketoInasal.1" depart="48.00" type="ped" speedFactor="1.10" duration="167.00" waitingTime="124.30" timeLoss="128.60" traveltime="167.00">
        <walk depart="48.00" departPos="0.00" arrival="215.00" arrivalPos="44.65" duration="167.00" routeLength="58.43" timeLoss="128.60" maxSpeed="1.52" waitingTime="124.30"/>
    </personinfo>
    <personinfo id="InasaltoSavemore.0" depart="0.00" type="ped" speedFactor="1.18" duration="215.90" waitingTime="173.30" timeLoss="177.69" traveltime="215.90">
        <walk depart="0.00" departPos="0.00" arrival="215.90" arrivalPos="44.65" duration="215.90" routeLength="62.53" timeLoss="177.69" maxSpeed="1.64" waitingTime="173.30"/>
    </personinfo>
    <personinfo id="PalengketoInasal.2" depart="96.00" type="ped" speedFactor="1.08" duration="121.00" waitingTime="77.40" timeLoss="82.04" traveltime="121.00">
        <walk depart="96.00" departPos="0.00" arrival="217.00" arrivalPos="44.65" duration="121.00" routeLength="58.43" timeLoss="82.04" maxSpeed="1.50" waitingTime="77.40"/>
    </personinfo>
    <personinfo id="InasaltoSavemore.1" depart="48.00" type="ped" speedFactor="1.13" duration="170.00" waitingTime="125.50" timeLoss="130.02" traveltime="170.00">
        <walk depart="48.00" departPos="0.00" arrival="218.00" arrivalPos="44.65" duration="170.00" routeLength="62.53" timeLoss="130.02" maxSpeed="1.56" waitingTime="125.50"/>
    </personinfo>
    <personinfo id="SavemoretoInasal.2" depart="96.00" type="ped" speedFactor="1.07" duration="124.90" waitingTime="11.30" timeLoss="82.88" traveltime="124.90">
        <walk depart="96.00" departPos="0.00" arrival="220.90" arrivalPos="44.65" duration="124.90" routeLength="62.53" timeLoss="82.88" maxSpeed="1.49" waitingTime="11.30"/>
    </personinfo>
    <personinfo id="InasaltoSavemore.2" depart="96.00" type="ped" speedFactor="1.02" duration="125.60" waitingTime="76.80" timeLoss="81.58" traveltime="125.60">
        <walk depart="96.00" departPos="0.00" arrival="221.60" arrivalPos="44.65" duration="125.60" routeLength="62.53" timeLoss="81.58" maxSpeed="1.42" waitingTime="76.80"/>
    </personinfo>
    <personinfo id="InasaltoSavemore.3" depart="144.00" type="ped" speedFactor="0.99" duration="79.70" waitingTime="29.50" timeLoss="34.36" traveltime="79.70">
        <walk depart="144.00" departPos="0.00" arrival="223.70" arrivalPos="44.65" duration="79.70" routeLength="62.53" timeLoss="34.36" maxSpeed="1.38" waitingTime="29.50"/>
    </personinfo>
    <personinfo id="JeepPilatoSavemore.0" depart="0.00" type="ped" speedFactor="1.07" duration="224.70" waitingTime="171.60" timeLoss="177.07" traveltime="224.70">
        <walk depart="0.00" departPos="0.00" arrival="224.70" arrivalPos="44.65" duration="224.70" routeLength="70.59" timeLoss="177.07" maxSpeed="1.48" waitingTime="171.60"/>
    </personinfo>
    <personinfo id="PalengketoInasal.3" depart="144.00" type="ped" speedFactor="0.92" duration="81.30" waitingTime="30.50" timeLoss="35.73" traveltime="81.30">
        <walk depart="144.00" departPos="0.00" arrival="225.30" arrivalPos="44.65" duration="81.30" routeLength="58.43" timeLoss="35.73" maxSpeed="1.28" waitingTime="30.50"/>
    </personinfo>
    <personinfo id="SavemoretoInasal.0" depart="0.00" type="ped" speedFactor="0.96" duration="225.70" waitingTime="99.00" timeLoss="178.95" traveltime="225.70">
        <walk depart="0.00" departPos="0.00" arrival="225.70" arrivalPos="44.65" duration="225.70" routeLength="62.53" timeLoss="178.95" maxSpeed="1.34" waitingTime="99.00"/>
    </personinfo>
    <personinfo id="SavemoretoInasal.1" depart="48.00" type="ped" speedFactor="1.00" duration="178.90" waitingTime="57.70" timeLoss="134.08" traveltime="178.90">
        <walk depart="48.00" departPos="0.00" arrival="226.90" arrivalPos="44.65" duration="178.90" routeLength="62.53" timeLoss="134.08" maxSpeed="1.40" waitingTime="57.70"/>
    </personinfo>
    <tripinfo id="Banlic-MamatidtoStaRosa.0" depart="11.80" departLane="1346113028#0_1" departPos="5.10" departPosLat="0.00" departSpeed="7.11" departDelay="0.00" arrival="233.10" arrivalLane="549232953#10_1" arrivalPos="967.06" arrivalPosLat="-0.00" arrivalSpeed="23.71" duration="221.30" routeLength="3125.43" waitingTime="0.00" waitingCount="0" stopTime="0.00" timeLoss="4.80" rerouteNo="1" devices="tripinfo_Banlic-MamatidtoStaRosa.0 routing_Banlic-MamatidtoStaRosa.0" vType="car" speedFactor="0.85" vaporized=""/>
    <personinfo id="PalengketoInasal.0" depart="0.00" type="ped" speedFactor="0.81" duration="233.50" waitingTime="175.40" timeLoss="181.65" traveltime="233.50">
        <walk depart="0.00" departPos="0.00" arrival="233.50" arrivalPos="44.65" duration="233.50" routeLength="58.43" timeLoss="181.65" maxSpeed="1.13" waitingTime="175.40"/>
    </personinfo>
    <personinfo id="JeepPilatoSavemore.1" depart="48.00" type="ped" speedFactor="0.89" duration="186.20" waitingTime="122.70" timeLoss="129.05" traveltime="186.20">
        <walk depart="48.00" departPos="0.00" arrival="234.20" arrivalPos="44.65" duration="186.20" routeLength="70.59" timeLoss="129.05" maxSpeed="1.24" waitingTime="122.70"/>
    </personinfo>
    <personinfo id="JeepPilatoSavemore.2" depart="96.00" type="ped" speedFactor="0.98" duration="138.60" waitingTime="76.90" timeLoss="86.48" traveltime="138.60">
        <walk depart="96.00" departPos="0.00" arrival="234.60" arrivalPos="44.65" duration="138.60" routeLength="70.59" timeLoss="86.48" maxSpeed="1.35" waitingTime="76.90"/>
    </personinfo>
    <personinfo id="JeepPilatoSavemore.3" depart="144.00" type="ped" speedFactor="0.99" duration="91.10" waitingTime="30.10" timeLoss="39.54" traveltime="91.10">
        <walk depart="144.00" departPos="0.00" arrival="235.10" arrivalPos="44.65" duration="91.10" routeLength="70.59" timeLoss="39.54" maxSpeed="1.37" waitingTime="30.10"/>
    </personinfo>
    <tripinfo id="CalambatoNeighborhood.1" depart="87.10" departLane="32425220#0_2" departPos="7.20" departPosLat="0.00" departSpeed="28.43" departDelay="0.00" arrival="245.10" arrivalLane="32425190#1_1" arrivalPos="142.43" arrivalPosLat="0.00" arrivalSpeed="14.20" duration="158.00" routeLength="1067.95" waitingTime="95.30" waitingCount="1" stopTime="0.00" timeLoss="112.38" rerouteNo="1" devices="tripinfo_CalambatoNeighborhood.1 routing_CalambatoNeighborhood.1" vType="truck" speedFactor="1.02" vaporized=""/>
    <tripinfo id="NeighborhoodtoCalamba.2" depart="206.80" departLane="-32425190#1_1" departPos="2.30" departPosLat="0.00" departSpeed="16.98" departDelay="0.00" arrival="247.50" arrivalLane="-32425220#0_1" arrivalPos="290.87" arrivalPosLat="-0.00" arrivalSpeed="33.75" duration="40.70" routeLength="1059.30" waitingTime="0.00" waitingCount="0" stopTime="0.00" timeLoss="3.01" rerouteNo="1" devices="tripinfo_NeighborhoodtoCalamba.2 routing_NeighborhoodtoCalamba.2" vType="motorcycle" speedFactor="1.22" vaporized=""/>
    <tripinfo id="NeighborhoodtoCalamba.1" depart="201.70" departLane="-32425190#1_1" departPos="8.10" departPosLat="0.00" departSpeed="13.89" departDelay="0.00" arrival="256.80" arrivalLane="-32425220#0_2" arrivalPos="290.87" arrivalPosLat="0.00" arrivalSpeed="27.74" duration="55.10" routeLength="1053.50" waitingTime="0.00" waitingCount="0" stopTime="0.00" timeLoss="9.54" rerouteNo="1" devices="tripinfo_NeighborhoodtoCalamba.1 routing_NeighborhoodtoCalamba.1" vType="jeep" speedFactor="1.00" vaporized=""/>
    <tripinfo id="CalambatoNeighborhood.2" depart="156.50" departLane="32425220#0_2" departPos="7.20" departPosLat="0.00" departSpeed="30.93" departDelay="0.00" arrival="258.90" arrivalLane="32425190#1_1" arrivalPos="142.43" arrivalPosLat="0.00" arrivalSpeed="15.41" duration="102.40" routeLength="1067.95" waitingTime="36.80" waitingCount="1" stopTime="0.00" timeLoss="60.53" rerouteNo="1" devices="tripinfo_CalambatoNeighborhood.2 routing_CalambatoNeighborhood.2" vType="truck" speedFactor="1.11" vaporized=""/>
    <tripinfo id="StaRosatoBanlic-Mamatid.1" depart="42.70" departLane="-549232953#10_2" departPos="2.30" departPosLat="0.00" departSpeed="25.10" departDelay="0.00" arrival="266.80" arrivalLane="-1346113028#0_1" arrivalPos="507.75" arrivalPosLat="0.00" arrivalSpeed="7.52" duration="224.10" routeLength="3138.61" waitingTime="7.50" waitingCount="1" stopTime="0.00" timeLoss="18.24" rerouteNo="1" devices="tripinfo_StaRosatoBanlic-Mamatid.1 routing_StaRosatoBanlic-Mamatid.1" vType="tricycle" speedFactor="0.90" vaporized=""/>
    <tripinfo id="NeighborhoodtoCalamba.3" depart="212.70" departLane="-32425190#1_1" departPos="5.10" departPosLat="0.00" departSpeed="12.63" departDelay="0.00" arrival="267.30" arrivalLane="-32425220#0_2" arrivalPos="290.87" arrivalPosLat="0.00" arrivalSpeed="25.18" duration="54.60" routeLength="1056.50" waitingTime="0.00" waitingCount="0" stopTime="0.00" timeLoss="4.24" rerouteNo="1" devices="tripinfo_NeighborhoodtoCalamba.3 routing_NeighborhoodtoCalamba.3" vType="car" speedFactor="0.91" vaporized=""/>
    <tripinfo id="StaRosatoBanlic-Mamatid.2" depart="84.00" departLane="-549232953#10_1" departPos="12.10" departPosLat="0.00" departSpeed="27.78" departDelay="0.00" arrival="274.10" arrivalLane="-1346113028#0_1" arrivalPos="507.75" arrivalPosLat="0.00" arrivalSpeed="8.30" duration="190.10" routeLength="3128.81" waitingTime="0.00" waitingCount="0" stopTime="0.00" timeLoss="4.42" rerouteNo="1" devices="tripinfo_StaRosatoBanlic-Mamatid.2 routing_StaRosatoBanlic-Mamatid.2" vType="bus" speedFactor="1.00" vaporized=""/>
    <tripinfo id="CalambatoStaRosa.6" depart="35.30" departLane="32425220#0_2" departPos="5.10" departPosLat="0.00" departSpeed="27.76" departDelay="0.00" arrival="277.60" arrivalLane="549232953#10_1" arrivalPos="967.06" arrivalPosLat="-0.00" arrivalSpeed="27.66" duration="242.30" routeLength="3155.57" waitingTime="111.10" waitingCount="3" stopTime="0.00" timeLoss="128.54" rerouteNo="1" devices="tripinfo_CalambatoStaRosa.6 routing_CalambatoStaRosa.6" vType="car" speedFactor="1.00" vaporized=""/>
    <tripinfo id="CalambatoStaRosa.7" depart="38.20" departLane="32425220#0_1" departPos="5.10" departPosLat="0.00" departSpeed="26.74" departDelay="0.00" arrival="281.70" arrivalLane="549232953#10_2" arrivalPos="967.06" arrivalPosLat="0.00" arrivalSpeed="26.69" duration="243.50" routeLength="3155.57" waitingTime="99.90" waitingCount="1" stopTime="0.00" timeLoss="125.46" rerouteNo="1" devices="tripinfo_CalambatoStaRosa.7 routing_CalambatoStaRosa.7" vType="car" speedFactor="0.96" vaporized=""/>
    <tripinfo id="CalambatoStaRosa.5" depart="34.40" departLane="32425220#0_1" departPos="5.10" departPosLat="0.00" departSpeed="24.89" departDelay="0.00" arrival="282.70" arrivalLane="549232953#10_1" arrivalPos="967.06" arrivalPosLat="-0.00" arrivalSpeed="24.87" duration="248.30" routeLength="3155.57" waitingTime="102.70" waitingCount="1" stopTime="0.00" timeLoss="121.49" rerouteNo="1" devices="tripinfo_CalambatoStaRosa.5 routing_CalambatoStaRosa.5" vType="car" speedFactor="0.90" vaporized=""/>
    <tripinfo id="StaRosatoCalamba.16" depart="95.70" departLane="-549232953#10_2" departPos="2.30" departPosLat="0.00" departSpeed="29.89" departDelay="0.00" arrival="288.70" arrivalLane="-32425220#0_2" arrivalPos="290.87" arrivalPosLat="0.00" arrivalSpeed="29.88" duration="193.00" routeLength="3155.07" waitingTime="72.00" waitingCount="2" stopTime="0.00" timeLoss="87.46" rerouteNo="1" devices="tripinfo_StaRosatoCalamba.16 routing_StaRosatoCalamba.16" vType="tricycle" speedFactor="1.08" vaporized=""/>
    <tripinfo id="NeighborhoodtoStaRosa.1" depart="74.50" departLane="-32425190#1_1" departPos="12.10" departPosLat="0.00" departSpeed="13.89" departDelay="0.00" arrival="289.00" arrivalLane="549232953#10_1" arrivalPos="967.06" arrivalPosLat="0.00" arrivalSpeed="27.72" duration="214.50" routeLength="2476.86" waitingTime="93.70" waitingCount="4" stopTime="0.00" timeLoss="117.43" rerouteNo="1" devices="tripinfo_NeighborhoodtoStaRosa.1 routing_NeighborhoodtoStaRosa.1" vType="bus" speedFactor="1.00" vaporized=""/>
    <tripinfo id="Banlic-MamatidtoCalamba.0" depart="13.90" departLane="1346113028#0_1" departPos="2.30" departPosLat="0.00" departSpeed="8.78" departDelay="0.00" arrival="289.80" arrivalLane="-32425220#0_1" arrivalPos="290.87" arrivalPosLat="0.00" arrivalSpeed="29.38" duration="275.90" routeLength="1745.33" waitingTime="115.20" waitingCount="1" stopTime="0.00" timeLoss="147.80" rerouteNo="1" devices="tripinfo_Banlic-MamatidtoCalamba.0 routing_Banlic-MamatidtoCalamba.0" vType="tricycle" speedFactor="1.06" vaporized=""/>