<?xml version="1.0" encoding="UTF-8"?>

<!-- generated on 2026-02-24 16:12:56 by Eclipse SUMO sumo Version 1.24.0
<sumoConfiguration xmlns:xsi="http://www.w3.org/2001/XMLSchema-instance" xsi:noNamespaceSchemaLocation="http://sumo.dlr.de/xsd/sumoConfiguration.xsd">

    <input>
        <net-file value="Banlic-Mamatid_traci/network/banlic-mamatid_signalized.net.xml"/>
        <route-files value="Banlic-Mamatid_traci/demand/flows_slow_traffic.rou.xml"/>
        <additional-files value="Banlic-Mamatid_traci/additionals/banlic-mamatid.poly.xml,Banlic-Mamatid_traci/ additionals/banlic-mamatid.add.xml"/>
    </input>

    <output>
        <tripinfo-output value="Banlic-Mamatid_traci/output_DDPG/test_slow_trips.xml"/>
        <statistic-output value="Banlic-Mamatid_traci/output_DDPG/test_slow_stats.xml"/>
    </output>

    <time>
        <begin value="0"/>
        <end value="10800"/>
        <step-length value="0.1"/>
    </time>

    <processing>
        <lateral-resolution value="0.1"/>
        <collision.action value="none"/>
        <collision.check-junctions value="false"/>
        <collision.mingap-factor value="0"/>
    </processing>

    <report>
        <no-warnings value="true"/>
    </report>

    <traci_server>
        <remote-port value="59290"/>
    </traci_server>

    <gui_only>
        <delay value="0"/>
    </gui_only>

</sumoConfiguration>
-->

<tripinfos xmlns:xsi="http://www.w3.org/2001/XMLSchema-instance" xsi:noNamespaceSchemaLocation="http://sumo.dlr.de/xsd/tripinfo_file.xsd">
    <tripinfo id="NeighborhoodtoCalamba.0" depart="15.30" departLane="-32425190#1_1" departPos="5.10" departPosLat="0.00" departSpeed="14.32" departDelay="0.00" arrival="64.50" arrivalLane="-32425220#0_2" arrivalPos="290.87" arrivalPosLat="0.00" arrivalSpeed="28.60" duration="49.20" routeLength="1056.50" waitingTime="0.00" waitingCount="0" stopTime="0.00" timeLoss="4.77" rerouteNo="1" devices="tripinfo_NeighborhoodtoCalamba.0 routing_NeighborhoodtoCalamba.0" vType="car" speedFactor="1.03" vaporized=""/>
    <tripinfo id="CalambatoNeighborhood.0" depart="22.80" departLane="32425220#0_1" departPos="12.10" departPosLat="0.00" departSpeed="27.78" departDelay="0.00" arrival="73.30" arrivalLane="32425190#1_1" arrivalPos="142.43" arrivalPosLat="0.00" arrivalSpeed="13.84" duration="50.50" routeLength="1063.05" waitingTime="0.00" waitingCount="0" stopTime="0.00" timeLoss="4.02" rerouteNo="1" devices="tripinfo_CalambatoNeighborhood.0 routing_CalambatoNeighborhood.0" vType="bus" speedFactor="1.00" vaporized=""/>
    <tripinfo id="NeighborhoodtoStaRosa.0" depart="1.20" departLane="-32425190#1_1" departPos="5.10" departPosLat="0.00" departSpeed="14.02" departDelay="0.00" arrival="101.50" arrivalLane="549232953#10_1" arrivalPos="967.06" arrivalPosLat="0.00" arrivalSpeed="27.96" duration="100.30" routeLength="2483.86" waitingTime="0.00" waitingCount="0" stopTime="0.00" timeLoss="3.65" rerouteNo="1" devices="tripinfo_NeighborhoodtoStaRosa.0 routing_NeighborhoodtoStaRosa.0" vType="car" speedFactor="1.01" vaporized=""/>
    <tripinfo id="CalambatoStaRosa.1" depart="17.30" departLane="32425220#0_2" departPos="8.10" departPosLat="0.00" departSpeed="27.78" departDelay="0.00" arrival="131.40" arrivalLane="549232953#10_2" arrivalPos="967.06" arrivalPosLat="0.00" arrivalSpeed="27.74" duration="114.10" routeLength="3152.57" waitingTime="0.00" waitingCount="0" stopTime="0.00" timeLoss="0.62" rerouteNo="1" devices="tripinfo_CalambatoStaRosa.1 routing_CalambatoStaRosa.1" vType="jeep" speedFactor="1.00" vaporized=""/>
    <tripinfo id="CalambatoStaRosa.0" depart="6.60" departLane="32425220#0_1" departPos="7.20" departPosLat="0.00" departSpeed="25.75" departDelay="0.00" arrival="132.20" arrivalLane="549232953#10_1" arrivalPos="967.06" arrivalPosLat="0.00" arrivalSpeed="25.69" duration="125.60" routeLength="3153.47" waitingTime="0.00" waitingCount="0" stopTime="0.00" timeLoss="3.05" rerouteNo="1" devices="tripinfo_CalambatoStaRosa.0 routing_CalambatoStaRosa.0" vType="truck" speedFactor="0.93" vaporized=""/>
    <tripinfo id="StaRosatoCalamba.0" depart="3.00" departLane="-549232953#10_1" departPos="2.30" departPosLat="0.00" departSpeed="25.78" departDelay="0.00" arrival="136.00" arrivalLane="-32425220#0_2" arrivalPos="290.87" arrivalPosLat="0.00" arrivalSpeed="25.51" duration="133.00" routeLength="3155.07" waitingTime="4.90" waitingCount="1" stopTime="0.00" timeLoss="10.59" rerouteNo="1" devices="tripinfo_StaRosatoCalamba.0 routing_StaRosatoCalamba.0" vType="motorcycle" speedFactor="0.93" vaporized=""/>
    <tripinfo id="StaRosatoCalamba.3" depart="16.40" departLane="-549232953#10_2" departPos="5.10" departPosLat="0.00" departSpeed="30.77" departDelay="0.00" arrival="138.60" arrivalLane="-32425220#0_2" arrivalPos="290.87" arrivalPosLat="0.00" arrivalSpeed="30.77" duration="122.20" routeLength="3152.27" waitingTime="5.20" waitingCount="1" stopTime="0.00" timeLoss="19.67" rerouteNo="1" devices="tripinfo_StaRosatoCalamba.3 routing_StaRosatoCalamba.3" vType="car" speedFactor="1.11" vaporized=""/>
    <tripinfo id="StaRosatoCalamba.2" depart="8.90" departLane="-549232953#10_1" departPos="2.30" departPosLat="0.00" departSpeed="25.97" departDelay="0.00" arrival="141.00" arrivalLane="-32425220#0_2" arrivalPos="290.87" arrivalPosLat="0.00" arrivalSpeed="25.95" duration="132.10" routeLength="3155.07" waitingTime="0.00" waitingCount="0" stopTime="0.00" timeLoss="10.62" rerouteNo="1" devices="tripinfo_StaRosatoCalamba.2 routing_StaRosatoCalamba.2" vType="tricycle" speedFactor="0.94" vaporized=""/>
    <tripinfo id="StaRosatoCalamba.1" depart="6.90" departLane="-549232953#10_2" departPos="7.20" departPosLat="0.00" departSpeed="29.57" departDelay="0.00" arrival="143.80" arrivalLane="-32425220#0_1" arrivalPos="290.87" arrivalPosLat="0.00" arrivalSpeed="29.57" duration="136.90" routeLength="3150.17" waitingTime="11.60" waitingCount="1" stopTime="0.00" timeLoss="30.32" rerouteNo="1" devices="tripinfo_StaRosatoCalamba.1 routing_StaRosatoCalamba.1" vType="truck" speedFactor="1.06" vaporized=""/>
    <tripinfo id="CalambatoStaRosa.2" depart="26.60" departLane="32425220#0_2" departPos="12.10" departPosLat="0.00" departSpeed="27.78" departDelay="0.00" arrival="144.90" arrivalLane="549232953#10_1" arrivalPos="967.06" arrivalPosLat="-0.00" arrivalSpeed="27.76" duration="118.30" routeLength="3148.57" waitingTime="0.00" waitingCount="0" stopTime="0.00" timeLoss="4.95" rerouteNo="1" devices="tripinfo_CalambatoStaRosa.2 routing_CalambatoStaRosa.2" vType="bus" speedFactor="1.00" vaporized=""/>
    <tripinfo id="StaRosatoCalamba.6" depart="48.10" departLane="-549232953#10_1" departPos="5.10" departPosLat="0.00" departSpeed="31.49" departDelay="0.00" arrival="149.00" arrivalLane="-32425220#0_2" arrivalPos="290.87" arrivalPosLat="0.00" arrivalSpeed="31.47" duration="100.90" routeLength="3152.27" waitingTime="0.00" waitingCount="0" stopTime="0.00" timeLoss="0.72" rerouteNo="1" devices="tripinfo_StaRosatoCalamba.6 routing_StaRosatoCalamba.6" vType="car" speedFactor="1.13" vaporized=""/>
    <tripinfo id="StaRosatoCalamba.4" depart="41.40" departLane="-549232953#10_2" departPos="7.20" departPosLat="0.00" departSpeed="28.95" departDelay="0.00" arrival="150.40" arrivalLane="-32425220#0_1" arrivalPos="290.87" arrivalPosLat="-0.00" arrivalSpeed="28.92" duration="109.00" routeLength="3150.17" waitingTime="0.00" waitingCount="0" stopTime="0.00" timeLoss="0.13" rerouteNo="1" devices="tripinfo_StaRosatoCalamba.4 routing_StaRosatoCalamba.4" vType="truck" speedFactor="1.04" vaporized=""/>
    <tripinfo id="StaRosatoCalamba.7" depart="48.40" departLane="-549232953#10_2" departPos="7.20" departPosLat="0.00" departSpeed="27.83" departDelay="0.00" arrival="181.90" arrivalLane="-32425220#0_1" arrivalPos="290.87" arrivalPosLat="-0.00" arrivalSpeed="28.13" duration="133.50" routeLength="3150.17" waitingTime="3.40" waitingCount="1" stopTime="0.00" timeLoss="21.65" rerouteNo="1" devices="tripinfo_StaRosatoCalamba.7 routing_StaRosatoCalamba.7" vType="truck" speedFactor="1.01" vaporized=""/>
    <tripinfo id="StaRosatoCalamba.9" depart="54.10" departLane="-549232953#10_2" departPos="8.10" departPosLat="0.00" departSpeed="27.78" departDelay="0.00" arrival="184.70" arrivalLane="-32425220#0_1" arrivalPos="290.87" arrivalPosLat="-0.00" arrivalSpeed="27.72" duration="130.60" routeLength="3149.27" waitingTime="0.00" waitingCount="0" stopTime="0.00" timeLoss="17.17" rerouteNo="1" devices="tripinfo_StaRosatoCalamba.9 routing_StaRosatoCalamba.9" vType="jeep" speedFactor="1.00" vaporized=""/>
    <tripinfo id="StaRosatoCalamba.5" depart="46.60" departLane="-549232953#10_2" departPos="7.20" departPosLat="0.00" departSpeed="26.39" departDelay="0.00" arrival="186.30" arrivalLane="-32425220#0_1" arrivalPos="290.87" arrivalPosLat="-0.00" arrivalSpeed="26.38" duration="139.70" routeLength="3150.17" waitingTime="3.60" waitingCount="1" stopTime="0.00" timeLoss="20.30" rerouteNo="1" devices="tripinfo_StaRosatoCalamba.5 routing_StaRosatoCalamba.5" vType="truck" speedFactor="0.95" vaporized=""/>
    <tripinfo id="StaRosatoCalamba.8" depart="53.80" departLane="-549232953#10_1" departPos="8.10" departPosLat="0.00" departSpeed="27.78" departDelay="0.00" arrival="187.70" arrivalLane="-32425220#0_1" arrivalPos="290.87" arrivalPosLat="0.00" arrivalSpeed="27.68" duration="133.90" routeLength="3149.27" waitingTime="0.00" waitingCount="0" stopTime="0.00" timeLoss="20.46" rerouteNo="1" devices="tripinfo_StaRosatoCalamba.8 routing_StaRosatoCalamba.8" vType="jeep" speedFactor="1.00" vaporized=""/>
    <personinfo id="SavemoretoJeepPila.1" depart="72.00" type="ped" speedFactor="1.17" duration="129.00" waitingTime="32.20" timeLoss="42.19" traveltime="129.00">
        <walk depart="72.00" departPos="0.00" arrival="201.00" arrivalPos="25.71" duration="129.00" routeLength="140.94" timeLoss="42.19" maxSpeed="1.62" waitingTime="32.20"/>
    </personinfo>
    <personinfo id="PalengketoJeepPila.2" depart="144.00" type="ped" speedFactor="1.03" duration="62.70" waitingTime="17.50" timeLoss="21.78" traveltime="62.70">
        <walk depart="144.00" departPos="0.00" arrival="206.70" arrivalPos="25.71" duration="62.70" routeLength="58.82" timeLoss="21.78" maxSpeed="1.44" waitingTime="17.50"/>
    </personinfo>
    <personinfo id="InasaltoPalengke.0" depart="0.00" type="ped" speedFactor="1.07" duration="208.20" waitingTime="171.90" timeLoss="175.71" traveltime="208.20">
        <walk depart="0.00" departPos="0.00" arrival="208.20" arrivalPos="34.28" duration="208.20" routeLength="48.06" timeLoss="175.71" maxSpeed="1.48" waitingTime="171.90"/>
    </personinfo>
    <personinfo id="SavemoretoJeepPila.0" depart="0.00" type="ped" speedFactor="0.85" duration="208.60" waitingTime="76.90" timeLoss="89.90" traveltime="208.60">
        <walk depart="0.00" departPos="0.00" arrival="208.60" arrivalPos="25.71" duration="208.60" routeLength="140.94" timeLoss="89.90" maxSpeed="1.19" waitingTime="76.90"/>
    </personinfo>
    <personinfo id="PalengketoJeepPila.0" depart="0.00" type="ped" speedFactor="0.95" duration="209.00" waitingTime="159.40" timeLoss="164.30" traveltime="209.00">
        <walk depart="0.00" departPos="0.00" arrival="209.00" arrivalPos="25.71" duration="209.00" routeLength="58.82" timeLoss="164.30" maxSpeed="1.32" waitingTime="159.40"/>
    </personinfo>
    <personinfo id="InasaltoPalengke.2" depart="144.00" type="ped" speedFactor="0.93" duration="67.80" waitingTime="26.30" timeLoss="30.47" traveltime="67.80">
        <walk depart="144.00" departPos="0.00" arrival="211.80" arrivalPos="34.28" duration="67.80" routeLength="48.06" timeLoss="30.47" maxSpeed="1.29" waitingTime="26.30"/>
    </personinfo>
    <personinfo id="InasaltoPalengke.1" depart="72.00" type="ped" speedFactor="0.92" duration="141.30" waitingTime="99.20" timeLoss="103.59" traveltime="141.30">
        <walk depart="72.00" departPos="0.00" arrival="213.30" arrivalPos="34.28" duration="141.30" routeLength="48.06" timeLoss="103.59" maxSpeed="1.27" waitingTime="99.20"/>
    </personinfo>
    <personinfo id="PalengketoJeepPila.1" depart="72.00" type="ped" speedFactor="0.87" duration="141.50" waitingTime="87.60" timeLoss="93.09" traveltime="141.50">
        <walk depart="72.00" departPos="0.00" arrival="213.50" arrivalPos="25.71" duration="141.50" routeLength="58.82" timeLoss="93.09" maxSpeed="1.22" waitingTime="87.60"/>
    </personinfo>
    <tripinfo id="StaRosatoNeighborhood.0" depart="127.10" departLane="-549232953#10_1" departPos="5.10" departPosLat="0.00" departSpeed="34.31" departDelay="0.00" arrival="218.70" arrivalLane="32425190#1_1" arrivalPos="142.43" arrivalPosLat="0.00" arrivalSpeed="17.15" duration="91.60" routeLength="2475.52" waitingTime="0.00" waitingCount="0" stopTime="0.00" timeLoss="13.10" rerouteNo="1" devices="tripinfo_StaRosatoNeighborhood.0 routing_StaRosatoNeighborhood.0" vType="car" speedFactor="1.24" vaporized=""/>
    <personinfo id="InasaltoSavemore.0" depart="0.00" type="ped" speedFactor="1.07" duration="219.60" waitingTime="172.50" timeLoss="177.40" traveltime="219.60">
        <walk depart="0.00" departPos="0.00" arrival="219.60" arrivalPos="44.65" duration="219.60" routeLength="62.53" timeLoss="177.40" maxSpeed="1.48" waitingTime="172.50"/>
    </personinfo>
    <personinfo id="PalengketoInasal.2" depart="144.00" type="ped" speedFactor="0.99" duration="76.50" waitingTime="29.10" timeLoss="33.90" traveltime="76.50">
        <walk depart="144.00" departPos="0.00" arrival="220.50" arrivalPos="44.65" duration="76.50" routeLength="58.43" timeLoss="33.90" maxSpeed="1.37" waitingTime="29.10"/>
    </personinfo>
    <personinfo id="SavemoretoInasal.0" depart="0.00" type="ped" speedFactor="1.06" duration="221.40" waitingTime="106.00" timeLoss="179.13" traveltime="221.40">
        <walk depart="0.00" departPos="0.00" arrival="221.40" arrivalPos="44.65" duration="221.40" routeLength="62.53" timeLoss="179.13" maxSpeed="1.48" waitingTime="106.00"/>
    </personinfo>
    <personinfo id="PalengketoInasal.0" depart="0.00" type="ped" speedFactor="0.93" duration="223.70" waitingTime="173.40" timeLoss="178.56" traveltime="223.70">
        <walk depart="0.00" departPos="0.00" arrival="223.70" arrivalPos="44.65" duration="223.70" routeLength="58.43" timeLoss="178.56" maxSpeed="1.29" waitingTime="173.40"/>
    </personinfo>
    <personinfo id="InasaltoSavemore.2" depart="144.00" type="ped" speedFactor="0.98" duration="80.80" waitingTime="29.30" timeLoss="34.63" traveltime="80.80">
        <walk depart="144.00" departPos="0.00" arrival="224.80" arrivalPos="44.65" duration="80.80" routeLength="62.53" timeLoss="34.63" maxSpeed="1.35" waitingTime="29.30"/>
    </personinfo>
    <personinfo id="JeepPilatoSavemore.0" depart="0.00" type="ped" speedFactor="1.07" duration="225.40" waitingTime="171.60" timeLoss="177.91" traveltime="225.40">
        <walk depart="0.00" departPos="0.00" arrival="225.40" arrivalPos="44.65" duration="225.40" routeLength="70.59" timeLoss="177.91" maxSpeed="1.49" waitingTime="171.60"/>
    </personinfo>
    <personinfo id="PalengketoInasal.1" depart="72.00" type="ped" speedFactor="0.88" duration="153.80" waitingTime="100.70" timeLoss="105.88" traveltime="153.80">
        <walk depart="72.00" departPos="0.00" arrival="225.80" arrivalPos="44.65" duration="153.80" routeLength="58.43" timeLoss="105.88" maxSpeed="1.22" waitingTime="100.70"/>
    </personinfo>
    <personinfo id="SavemoretoInasal.1" depart="72.00" type="ped" speedFactor="0.96" duration="154.20" waitingTime="25.90" timeLoss="107.14" traveltime="154.20">
        <walk depart="72.00" departPos="0.00" arrival="226.20" arrivalPos="44.65" duration="154.20" routeLength="62.53" timeLoss="107.14" maxSpeed="1.33" waitingTime="25.90"/>
    </personinfo>
    <tripinfo id="StaRosatoBanlic-Mamatid.0" depart="18.00" departLane="-549232953#10_1" departPos="2.30" departPosLat="0.00" departSpeed="25.01" departDelay="0.00" arrival="226.20" arrivalLane="-1346113028#0_1" arrivalPos="507.75" arrivalPosLat="0.00" arrivalSpeed="7.46" duration="208.20" routeLength="3138.61" waitingTime="0.00" waitingCount="0" stopTime="0.00" timeLoss="1.52" rerouteNo="1" devices="tripinfo_StaRosatoBanlic-Mamatid.0 routing_StaRosatoBanlic-Mamatid.0" vType="tricycle" speedFactor="0.90" vaporized=""/>
    <personinfo id="JeepPilatoPalengke.0" depart="0.00" type="ped" speedFactor="1.02" duration="226.30" waitingTime="173.10" timeLoss="178.51" traveltime="226.30">
        <walk depart="0.00" departPos="0.00" arrival="226.30" arrivalPos="34.28" duration="226.30" routeLength="67.39" timeLoss="178.51" maxSpeed="1.41" waitingTime="173.10"/>
    </personinfo>
    <personinfo id="JeepPilatoPalengke.2" depart="144.00" type="ped" speedFactor="0.97" duration="84.80" waitingTime="29.20" timeLoss="34.83" traveltime="84.80">
        <walk depart="144.00" departPos="0.00" arrival="228.80" arrivalPos="34.28" duration="84.80" routeLength="67.39" timeLoss="34.83" maxSpeed="1.35" waitingTime="29.20"/>
    </personinfo>
    <personinfo id="InasaltoSavemore.1" depart="72.00" type="ped" speedFactor="0.89" duration="157.00" waitingTime="100.70" timeLoss="106.37" traveltime="157.00">
        <walk depart="72.00" departPos="0.00" arrival="229.00" arrivalPos="44.65" duration="157.00" routeLength="62.53" timeLoss="106.37" maxSpeed="1.24" waitingTime="100.70"/>
    </personinfo>
    <personinfo id="JeepPilatoSavemore.2" depart="144.00" type="ped" speedFactor="0.98" duration="85.70" waitingTime="28.10" timeLoss="33.88" traveltime="85.70">
        <walk depart="144.00" departPos="0.00" arrival="229.70" arrivalPos="44.65" duration="85.70" routeLength="70.59" timeLoss="33.88" maxSpeed="1.36" waitingTime="28.10"/>
    </personinfo>
    <tripinfo id="StaRosatoBanlic-Mamatid.1" depart="42.70" departLane="-549232953#10_1" departPos="8.10" departPosLat="0.00" departSpeed="27.78" departDelay="0.00" arrival="231.10" arrivalLane="-1346113028#0_1" arrivalPos="507.75" arrivalPosLat="0.00" arrivalSpeed="8.32" duration="188.40" routeLength="3132.81" waitingTime="0.00" waitingCount="0" stopTime="0.00" timeLoss="2.59" rerouteNo="1" devices="tripinfo_StaRosatoBanlic-Mamatid.1 routing_StaRosatoBanlic-Mamatid.1" vType="jeep" speedFactor="1.00" vaporized=""/>
    <personinfo id="JeepPilatoSavemore.1" depart="72.00" type="ped" speedFactor="0.94" duration="161.40" waitingTime="100.90" timeLoss="107.17" traveltime="161.40">
        <walk depart="72.00" departPos="0.00" arrival="233.40" arrivalPos="44.65" duration="161.40" routeLength="70.59" timeLoss="107.17" maxSpeed="1.30" waitingTime="100.90"/>
    </personinfo>
    <personinfo id="JeepPilatoPalengke.1" depart="72.00" type="ped" speedFactor="0.82" duration="168.60" waitingTime="102.40" timeLoss="109.07" traveltime="168.60">
        <walk depart="72.00" departPos="0.00" arrival="240.60" arrivalPos="34.28" duration="168.60" routeLength="67.39" timeLoss="109.07" maxSpeed="1.13" waitingTime="102.40"/>
    </personinfo>
    <tripinfo id="CalambatoNeighborhood.1" depart="87.10" departLane="32425220#0_2" departPos="2.30" departPosLat="0.00" departSpeed="26.94" departDelay="0.00" arrival="245.30" arrivalLane="32425190#1_1" arrivalPos="142.43" arrivalPosLat="0.00" arrivalSpeed="13.45" duration="158.20" routeLength="1072.85" waitingTime="100.70" waitingCount="1" stopTime="0.00" timeLoss="109.90" rerouteNo="1" devices="tripinfo_CalambatoNeighborhood.1 routing_CalambatoNeighborhood.1" vType="motorcycle" speedFactor="0.97" vaporized=""/>
    <tripinfo id="NeighborhoodtoCalamba.1" depart="201.70" departLane="-32425190#1_1" departPos="5.10" departPosLat="0.00" departSpeed="14.75" departDelay="0.00" arrival="249.90" arrivalLane="-32425220#0_2" arrivalPos="290.87" arrivalPosLat="0.00" arrivalSpeed="29.48" duration="48.20" routeLength="1056.50" waitingTime="0.00" waitingCount="0" stopTime="0.00" timeLoss="5.05" rerouteNo="1" devices="tripinfo_NeighborhoodtoCalamba.1 routing_NeighborhoodtoCalamba.1" vType="car" speedFactor="1.06" vaporized=""/>
    <tripinfo id="CalambatoNeighborhood.2" depart="156.50" departLane="32425220#0_2" departPos="5.10" departPosLat="0.00" departSpeed="28.41" departDelay="0.00" arrival="254.10" arrivalLane="32425190#1_1" arrivalPos="142.43" arrivalPosLat="0.00" arrivalSpeed="14.15" duration="97.60" routeLength="1070.05" waitingTime="37.40" waitingCount="1" stopTime="0.00" timeLoss="51.82" rerouteNo="1" devices="tripinfo_CalambatoNeighborhood.2 routing_CalambatoNeighborhood.2" vType="car" speedFactor="1.02" vaporized=""/>
    <tripinfo id="NeighborhoodtoCalamba.2" depart="212.70" departLane="-32425190#1_1" departPos="5.10" departPosLat="0.00" departSpeed="12.87" departDelay="0.00" arrival="266.70" arrivalLane="-32425220#0_2" arrivalPos="290.87" arrivalPosLat="0.00" arrivalSpeed="25.65" duration="54.00" routeLength="1056.50" waitingTime="0.00" waitingCount="0" stopTime="0.00" timeLoss="4.49" rerouteNo="1" devices="tripinfo_NeighborhoodtoCalamba.2 routing_NeighborhoodtoCalamba.2" vType="car" speedFactor="0.93" vaporized=""/>
    <tripinfo id="CalambatoStaRosa.4" depart="35.30" departLane="32425220#0_2" departPos="2.30" departPosLat="0.00" departSpeed="31.32" departDelay="0.00" arrival="268.90" arrivalLane="549232953#10_2" arrivalPos="967.06" arrivalPosLat="-0.00" arrivalSpeed="31.29" duration="233.60" routeLength="3158.37" waitingTime="114.70" waitingCount="2" stopTime="0.00" timeLoss="132.73" rerouteNo="1" devices="tripinfo_CalambatoStaRosa.4 routing_CalambatoStaRosa.4" vType="tricycle" speedFactor="1.13" vaporized=""/>
    <tripinfo id="CalambatoStaRosa.3" depart="30.30" departLane="32425220#0_1" departPos="2.30" departPosLat="0.00" departSpeed="26.18" departDelay="0.00" arrival="275.10" arrivalLane="549232953#10_1" arrivalPos="967.06" arrivalPosLat="-0.00" arrivalSpeed="26.16" duration="244.80" routeLength="3158.37" waitingTime="116.90" waitingCount="1" stopTime="0.00" timeLoss="124.13" rerouteNo="1" devices="tripinfo_CalambatoStaRosa.3 routing_CalambatoStaRosa.3" vType="motorcycle" speedFactor="0.94" vaporized=""/>
    <tripinfo id="NeighborhoodtoStaRosa.2" depart="117.10" departLane="-32425190#1_1" departPos="5.10" departPosLat="0.00" departSpeed="14.39" departDelay="0.00" arrival="277.90" arrivalLane="549232953#10_1" arrivalPos="967.06" arrivalPosLat="-0.00" arrivalSpeed="28.74" duration="160.80" routeLength="2483.86" waitingTime="50.10" waitingCount="1" stopTime="0.00" timeLoss="66.67" rerouteNo="1" devices="tripinfo_NeighborhoodtoStaRosa.2 routing_NeighborhoodtoStaRosa.2" vType="car" speedFactor="1.04" vaporized=""/>
    <tripinfo id="StaRosatoBanlic-Mamatid.2" depart="84.00" departLane="-549232953#10_1" departPos="5.10" departPosLat="0.00" departSpeed="26.29" departDelay="0.00" arrival="283.10" arrivalLane="-1346113028#0_1" arrivalPos="507.75" arrivalPosLat="0.00" arrivalSpeed="7.84" duration="199.10" routeLength="3135.81" waitingTime="0.00" waitingCount="0" stopTime="0.00" timeLoss="2.59" rerouteNo="1" devices="tripinfo_StaRosatoBanlic-Mamatid.2 routing_StaRosatoBanlic-Mamatid.2" vType="car" speedFactor="0.95" vaporized=""/>
    <tripinfo id="CalambatoBanlic-Mamatid.0" depart="40.30" departLane="32425220#0_1" departPos="5.10" departPosLat="0.00" departSpeed="29.05" departDelay="0.00" arrival="287.50" arrivalLane="-1346113028#0_1" arrivalPos="507.75" arrivalPosLat="0.00" arrivalSpeed="8.70" duration="247.20" routeLength="1737.47" waitingTime="101.80" waitingCount="2" stopTime="0.00" timeLoss="117.68" rerouteNo="1" devices="tripinfo_CalambatoBanlic-Mamatid.0 routing_CalambatoBanlic-Mamatid.0" vType="car" speedFactor="1.05" vaporized=""/>
    <tripinfo id="CalambatoBanlic-Mamatid.1" depart="54.60" departLane="32425220#0_1" departPos="5.10" departPosLat="0.00" departSpeed="28.75" departDelay="0.00" arrival="290.50" arrivalLane="-1346113028#0_1" arrivalPos="507.75" arrivalPosLat="0.00" arrivalSpeed="8.58" duration="235.90" routeLength="1737.47" waitingTime="93.00" waitingCount="1" stopTime="0.00" timeLoss="105.00" rerouteNo="1" devices="tripinfo_CalambatoBanlic-Mamatid.1 routing_CalambatoBanlic-Mamatid.1" vType="car" speedFactor="1.03" vaporized=""/>
    <tripinfo id="NeighborhoodtoBanlic-Mamatid.0" depart="134.80" departLane="-32425190#1_1" departPos="5.10" departPosLat="0.00" departSpeed="14.69" departDelay="0.00" arrival="294.70" arrivalLane="-1346113028#0_1" arrivalPos="507.75" arrivalPosLat="0.00" arrivalSpeed="8.70" duration="159.90" routeLength="1065.76" waitingTime="33.60" waitingCount="1" stopTime="0.00" timeLoss="47.17" rerouteNo="1" devices="tripinfo_NeighborhoodtoBanlic-Mamatid.0 routing_NeighborhoodtoBanlic-Mamatid.0" vType="car" speedFactor="1.06" vaporized=""/>
    <tripinfo id="NeighborhoodtoStaRosa.1" depart="92.30" departLane="-32425190#1_1" departPos="2.30" departPosLat="0.00" departSpeed="11.28" departDelay="0.00" arrival="296.40" arrivalLane="549232953#10_1" arrivalPos="967.06" arrivalPosLat="0.00" arrivalSpeed="22.48" duration="204.10" routeLength="2486.66" waitingTime="76.20" waitingCount="2" stopTime="0.00" timeLoss="83.76" rerouteNo="1" devices="tripinfo_NeighborhoodtoStaRosa.1 routing_NeighborhoodtoStaRosa.1" vType="tricycle" speedFactor="0.81" vaporized=""/>
    <tripinfo id="StaRosatoCalamba.11" depart="128.20" departLane="-549232953#10_2" departPos="8.10" departPosLat="0.00" departSpeed="27.78" departDelay="0.00" arrival="307.20" arrivalLane="-32425220#0_2" arrivalPos="290.87" arrivalPosLat="-0.10" arrivalSpeed="27.75" duration="179.00" routeLength="3149.27" waitingTime="45.50" waitingCount="1" stopTime="0.00" timeLoss="65.55" rerouteNo="1" devices="tripinfo_StaRosatoCalamba.11 routing_StaRosatoCalamba.11" vType="jeep" speedFactor="1.00" vaporized=""/>
    <tripinfo id="StaRosatoCalamba.12" depart="129.90" departLane="-549232953#10_1" departPos="8.10" departPosLat="0.00" departSpeed="27.78" departDelay="0.00" arrival="307.50" arrivalLane="-32425220#0_1" arrivalPos="290.87" arrivalPosLat="-0.00" arrivalSpeed="27.76" duration="177.60" routeLength="3149.27" waitingTime="37.80" waitingCount="1" stopTime="0.00" timeLoss="64.24" rerouteNo="1" devices="tripinfo_StaRosatoCalamba.12 routing_StaRosatoCalamba.12" vType="jeep" speedFactor="1.00" vaporized=""/>
    <tripinfo id="Banlic-MamatidtoCalamba.0" depart="13.90" departLane="1346113028#0_1" departPos="5.10" departPosLat="0.00" departSpeed="9.48" departDelay="0.00" arrival="308.90" arrivalLane="-32425220#0_1" arrivalPos="290.87" arrivalPosLat="0.00" arrivalSpeed="30.37" duration="295.00" routeLength="1742.53" waitingTime="155.50" waitingCount="1" stopTime="0.00" timeLoss="175.93" rerouteNo="1" devices="tripinfo_Banlic-MamatidtoCalamba.0 routing_Banlic-MamatidtoCalamba.0" vType="car" speedFactor="1.14" vaporized=""/>
    <tripinfo id="Banlic-MamatidtoCalamba.1" depart="62.00" departLane="1346113028#0_1" departPos="2.30" departPosLat="0.00" departSpeed="7.93" departDelay="0.00" arrival="309.40" arrivalLane="-32425220#0_2" arrivalPos="290.87" arrivalPosLat="0.00" arrivalSpeed="26.39" duration="247.40" routeLength="1745.33" waitingTime="73.60" waitingCount="1" stopTime="0.00" timeLoss="104.69" rerouteNo="1" devices="tripinfo_Banlic-MamatidtoCalamba.1 routing_Banlic-MamatidtoCalamba.1" vType="tricycle" speedFactor="0.95" vaporized=""/>
    <tripinfo id="NeighborhoodtoBanlic-Mamatid.1" depart="185.20" departLane="-32425190#1_1" departPos="5.10" departPosLat="0.00" departSpeed="13.29" departDelay="0.00" arrival="311.30" arrivalLane="-1346113028#0_1" arrivalPos="507.75" arrivalPosLat="0.00" arrivalSpeed="7.87" duration="126.10" routeLength="1065.76" waitingTime="0.00" waitingCount="0" stopTime="0.00" timeLoss="1.50" rerouteNo="1" devices="tripinfo_NeighborhoodtoBanlic-Mamatid.1 routing_NeighborhoodtoBanlic-Mamatid.1" vType="car" speedFactor="0.96" vaporized=""/>
    <tripinfo id="Banlic-MamatidtoCalamba.3" depart="118.90" departLane="1346113028#0_1" departPos="5.10" departPosLat="0.00" departSpeed="9.17" departDelay="0.00" arrival="313.50" arrivalLane="-32425220#0_2" arrivalPos="290.87" arrivalPosLat="0.00" arrivalSpeed="30.49" duration="194.60" routeLength="1742.53" waitingTime="46.20" waitingCount="1" stopTime="0.00" timeLoss="71.53" rerouteNo="1" devices="tripinfo_Banlic-MamatidtoCalamba.3 routing_Banlic-MamatidtoCalamba.3" vType="car" speedFactor="1.10" vaporized=""/>
    <tripinfo id="Banlic-MamatidtoCalamba.2" depart="113.40" departLane="1346113028#0_1" departPos="12.10" departPosLat="0.00" departSpeed="8.33" departDelay="0.00" arrival="314.50" arrivalLane="-32425220#0_1" arrivalPos="290.87" arrivalPosLat="0.00" arrivalSpeed="27.74" duration="201.10" routeLength="1735.53" waitingTime="47.70" waitingCount="1" stopTime="0.00" timeLoss="66.41" rerouteNo="1" devices="tripinfo_Banlic-MamatidtoCalamba.2 routing_Banlic-MamatidtoCalamba.2" vType="bus" speedFactor="1.00" vaporized=""/>
    <tripinfo id="CalambatoStaRosa.6" depart="57.10" departLane="32425220#0_1" departPos="5.10" departPosLat="0.00" departSpeed="27.41" departDelay="0.00" arrival="316.00" arrivalLane="549232953#10_1" arrivalPos="967.06" arrivalPosLat="-0.00" arrivalSpeed="27.38" duration="258.90" routeLength="3155.57" waitingTime="125.70" waitingCount="2" stopTime="0.00" timeLoss="143.76" rerouteNo="1" devices="tripinfo_CalambatoStaRosa.6 routing_CalambatoStaRosa.6" vType="car" speedFactor="0.99" vaporized=""/>
    <tripinfo id="Banlic-MamatidtoCalamba.4" depart="129.20" departLane="1346113028#0_1" departPos="12.10" departPosLat="0.00" departSpeed="8.33" departDelay="0.00" arrival="318.70" arrivalLane="-32425220#0_2" arrivalPos="290.87" arrivalPosLat="0.00" arrivalSpeed="27.75" duration="189.50" routeLength="1735.53" waitingTime="35.90" waitingCount="1" stopTime="0.00" timeLoss="54.85" rerouteNo="1" devices="tripinfo_Banlic-MamatidtoCalamba.4 routing_Banlic-MamatidtoCalamba.4" vType="bus" speedFactor="1.00" vaporized=""/>