<?xml version="1.0" encoding="UTF-8"?>

<!-- generated on 2026-02-24 15:31:33 by Eclipse SUMO sumo Version 1.24.0
<sumoConfiguration xmlns:xsi="http://www.w3.org/2001/XMLSchema-instance" xsi:noNamespaceSchemaLocation="http://sumo.dlr.de/xsd/sumoConfiguration.xsd">

    <input>
        <net-file value="Banlic-Mamatid_traci/network/banlic-mamatid_signalized.net.xml"/>
        <route-files value="Banlic-Mamatid_traci/demand/flows_normal_traffic.rou.xml"/>
        <additional-files value="Banlic-Mamatid_traci/additionals/banlic-mamatid.poly.xml,Banlic-Mamatid_traci/ additionals/banlic-mamatid.add.xml"/>
    </input>

    <output>
        <tripinfo-output value="Banlic-Mamatid_traci/output_DDPG/test_normal_trips.xml"/>
        <statistic-output value="Banlic-Mamatid_traci/output_DDPG/test_normal_stats.xml"/>
    </output>

    <time>
        <begin value="0"/>
        <end value="10800"/>
        <step-length value="0.1"/>
    </time>

    <processing>
        <lateral-resolution value="0.1"/>
        <collision.action value="none"/>
        <collision.check-junctions value="false"/>
        <collision.mingap-factor value="0"/>
    </processing>

    <report>
        <no-warnings value="true"/>
    </report>

    <traci_server>
        <remote-port value="63853"/>
    </traci_server>

    <gui_only>
        <delay value="0"/>
    </gui_only>

</sumoConfiguration>
-->

<tripinfos xmlns:xsi="http://www.w3.org/2001/XMLSchema-instance" xsi:noNamespaceSchemaLocation="http://sumo.dlr.de/xsd/tripinfo_file.xsd">
    <tripinfo id="NeighborhoodtoCalamba.0" depart="15.30" departLane="-32425190#1_1" departPos="12.10" departPosLat="0.00" departSpeed="13.89" departDelay="0.00" arrival="70.00" arrivalLane="-32425220#0_2" arrivalPos="290.87" arrivalPosLat="0.00" arrivalSpeed="27.72" duration="54.70" routeLength="1049.50" waitingTime="0.00" waitingCount="0" stopTime="0.00" timeLoss="9.45" rerouteNo="1" devices="tripinfo_NeighborhoodtoCalamba.0 routing_NeighborhoodtoCalamba.0" vType="bus" speedFactor="1.00" vaporized=""/>
    <tripinfo id="StaRosatoCalamba.1" depart="16.40" departLane="-549232953#10_2" departPos="7.20" departPosLat="0.00" departSpeed="27.60" departDelay="0.00" arrival="135.80" arrivalLane="-32425220#0_2" arrivalPos="290.87" arrivalPosLat="0.00" arrivalSpeed="27.59" duration="119.40" routeLength="3150.17" waitingTime="0.00" waitingCount="0" stopTime="0.00" timeLoss="5.26" rerouteNo="1" devices="tripinfo_StaRosatoCalamba.1 routing_StaRosatoCalamba.1" vType="truck" speedFactor="0.99" vaporized=""/>
    <tripinfo id="StaRosatoCalamba.0" depart="8.90" departLane="-549232953#10_1" departPos="8.10" departPosLat="0.00" departSpeed="27.78" departDelay="0.00" arrival="145.80" arrivalLane="-32425220#0_1" arrivalPos="290.87" arrivalPosLat="0.00" arrivalSpeed="27.75" duration="136.90" routeLength="3149.27" waitingTime="4.90" waitingCount="1" stopTime="0.00" timeLoss="23.46" rerouteNo="1" devices="tripinfo_StaRosatoCalamba.0 routing_StaRosatoCalamba.0" vType="jeep" speedFactor="1.00" vaporized=""/>
    <tripinfo id="StaRosatoCalamba.2" depart="41.40" departLane="-549232953#10_2" departPos="7.20" departPosLat="0.00" departSpeed="28.37" departDelay="0.00" arrival="152.60" arrivalLane="-32425220#0_1" arrivalPos="290.87" arrivalPosLat="-0.00" arrivalSpeed="28.31" duration="111.20" routeLength="3150.17" waitingTime="0.00" waitingCount="0" stopTime="0.00" timeLoss="0.13" rerouteNo="1" devices="tripinfo_StaRosatoCalamba.2 routing_StaRosatoCalamba.2" vType="truck" speedFactor="1.02" vaporized=""/>
    <tripinfo id="StaRosatoCalamba.4" depart="54.10" departLane="-549232953#10_2" departPos="2.30" departPosLat="0.00" departSpeed="31.64" departDelay="0.00" arrival="169.50" arrivalLane="-32425220#0_1" arrivalPos="290.87" arrivalPosLat="-0.00" arrivalSpeed="31.62" duration="115.40" routeLength="3155.07" waitingTime="3.70" waitingCount="1" stopTime="0.00" timeLoss="15.65" rerouteNo="1" devices="tripinfo_StaRosatoCalamba.4 routing_StaRosatoCalamba.4" vType="tricycle" speedFactor="1.14" vaporized=""/>
    <tripinfo id="StaRosatoCalamba.3" depart="48.40" departLane="-549232953#10_1" departPos="8.10" departPosLat="0.00" departSpeed="27.78" departDelay="0.00" arrival="184.30" arrivalLane="-32425220#0_1" arrivalPos="290.87" arrivalPosLat="0.00" arrivalSpeed="27.78" duration="135.90" routeLength="3149.27" waitingTime="3.50" waitingCount="1" stopTime="0.00" timeLoss="22.48" rerouteNo="1" devices="tripinfo_StaRosatoCalamba.3 routing_StaRosatoCalamba.3" vType="jeep" speedFactor="1.00" vaporized=""/>
    <personinfo id="PalengketoJeepPila.0" depart="0.00" type="ped" speedFactor="1.06" duration="208.00" waitingTime="162.90" timeLoss="168.23" traveltime="208.00">
        <walk depart="0.00" departPos="0.00" arrival="208.00" arrivalPos="25.71" duration="208.00" routeLength="58.82" timeLoss="168.23" maxSpeed="1.48" waitingTime="162.90"/>
    </personinfo>
    <personinfo id="SavemoretoJeepPila.0" depart="0.00" type="ped" speedFactor="0.87" duration="208.20" waitingTime="78.40" timeLoss="91.91" traveltime="208.20">
        <walk depart="0.00" departPos="0.00" arrival="208.20" arrivalPos="25.71" duration="208.20" routeLength="140.94" timeLoss="91.91" maxSpeed="1.21" waitingTime="78.40"/>
    </personinfo>
    <personinfo id="PalengketoJeepPila.1" depart="144.00" type="ped" speedFactor="0.96" duration="65.10" waitingTime="15.60" timeLoss="20.83" traveltime="65.10">
        <walk depart="144.00" departPos="0.00" arrival="209.10" arrivalPos="25.71" duration="65.10" routeLength="58.82" timeLoss="20.83" maxSpeed="1.33" waitingTime="15.60"/>
    </personinfo>
    <personinfo id="InasaltoSavemore.1" depart="144.00" type="ped" speedFactor="1.24" duration="69.00" waitingTime="28.50" timeLoss="32.76" traveltime="69.00">
        <walk depart="144.00" departPos="0.00" arrival="213.00" arrivalPos="44.65" duration="69.00" routeLength="62.53" timeLoss="32.76" maxSpeed="1.73" waitingTime="28.50"/>
    </personinfo>
    <personinfo id="InasaltoPalengke.1" depart="144.00" type="ped" speedFactor="0.88" duration="69.60" waitingTime="26.00" timeLoss="30.18" traveltime="69.60">
        <walk depart="144.00" departPos="0.00" arrival="213.60" arrivalPos="34.28" duration="69.60" routeLength="48.06" timeLoss="30.18" maxSpeed="1.22" waitingTime="26.00"/>
    </personinfo>
    <personinfo id="InasaltoPalengke.0" depart="0.00" type="ped" speedFactor="0.93" duration="214.00" waitingTime="171.70" timeLoss="176.87" traveltime="214.00">
        <walk depart="0.00" departPos="0.00" arrival="214.00" arrivalPos="34.28" duration="214.00" routeLength="48.06" timeLoss="176.87" maxSpeed="1.29" waitingTime="171.70"/>
    </personinfo>
    <personinfo id="PalengketoInasal.0" depart="0.00" type="ped" speedFactor="1.15" duration="215.00" waitingTime="174.20" timeLoss="178.51" traveltime="215.00">
        <walk depart="0.00" departPos="0.00" arrival="215.00" arrivalPos="44.65" duration="215.00" routeLength="58.43" timeLoss="178.51" maxSpeed="1.60" waitingTime="174.20"/>
    </personinfo>
    <personinfo id="PalengketoInasal.1" depart="144.00" type="ped" speedFactor="1.03" duration="73.90" waitingTime="28.50" timeLoss="33.15" traveltime="73.90">
        <walk depart="144.00" departPos="0.00" arrival="217.90" arrivalPos="44.65" duration="73.90" routeLength="58.43" timeLoss="33.15" maxSpeed="1.43" waitingTime="28.50"/>
    </personinfo>
    <personinfo id="JeepPilatoPalengke.1" depart="144.00" type="ped" speedFactor="1.09" duration="77.90" waitingTime="28.20" timeLoss="33.37" traveltime="77.90">
        <walk depart="144.00" departPos="0.00" arrival="221.90" arrivalPos="34.28" duration="77.90" routeLength="67.39" timeLoss="33.37" maxSpeed="1.51" waitingTime="28.20"/>
    </personinfo>
    <personinfo id="InasaltoSavemore.0" depart="0.00" type="ped" speedFactor="0.97" duration="223.70" waitingTime="172.30" timeLoss="177.24" traveltime="223.70">
        <walk depart="0.00" departPos="0.00" arrival="223.70" arrivalPos="44.65" duration="223.70" routeLength="62.53" timeLoss="177.24" maxSpeed="1.35" waitingTime="172.30"/>
    </personinfo>
    <personinfo id="JeepPilatoSavemore.1" depart="144.00" type="ped" speedFactor="1.00" duration="82.80" waitingTime="26.70" timeLoss="32.21" traveltime="82.80">
        <walk depart="144.00" departPos="0.00" arrival="226.80" arrivalPos="44.65" duration="82.80" routeLength="70.59" timeLoss="32.21" maxSpeed="1.40" waitingTime="26.70"/>
    </personinfo>
    <personinfo id="JeepPilatoSavemore.0" depart="0.00" type="ped" speedFactor="0.96" duration="230.20" waitingTime="171.20" timeLoss="177.43" traveltime="230.20">
        <walk depart="0.00" departPos="0.00" arrival="230.20" arrivalPos="44.65" duration="230.20" routeLength="70.59" timeLoss="177.43" maxSpeed="1.34" waitingTime="171.20"/>
    </personinfo>
    <personinfo id="SavemoretoInasal.0" depart="0.00" type="ped" speedFactor="0.85" duration="230.50" waitingTime="88.50" timeLoss="177.84" traveltime="230.50">
        <walk depart="0.00" departPos="0.00" arrival="230.50" arrivalPos="44.65" duration="230.50" routeLength="62.53" timeLoss="177.84" maxSpeed="1.19" waitingTime="88.50"/>
    </personinfo>
    <personinfo id="JeepPilatoPalengke.0" depart="0.00" type="ped" speedFactor="0.92" duration="230.80" waitingTime="172.20" timeLoss="178.02" traveltime="230.80">
        <walk depart="0.00" departPos="0.00" arrival="230.80" arrivalPos="34.28" duration="230.80" routeLength="67.39" timeLoss="178.02" maxSpeed="1.28" waitingTime="172.20"/>
    </personinfo>
    <tripinfo id="CalambatoNeighborhood.0" depart="156.50" departLane="32425220#0_1" departPos="12.10" departPosLat="0.00" departSpeed="27.78" departDelay="0.00" arrival="252.30" arrivalLane="32425190#1_1" arrivalPos="142.43" arrivalPosLat="0.00" arrivalSpeed="13.83" duration="95.80" routeLength="1063.05" waitingTime="30.40" waitingCount="1" stopTime="0.00" timeLoss="49.29" rerouteNo="1" devices="tripinfo_CalambatoNeighborhood.0 routing_CalambatoNeighborhood.0" vType="bus" speedFactor="1.00" vaporized=""/>
    <tripinfo id="NeighborhoodtoCalamba.1" depart="201.70" departLane="-32425190#1_1" departPos="12.10" departPosLat="0.00" departSpeed="13.89" departDelay="0.00" arrival="256.40" arrivalLane="-32425220#0_2" arrivalPos="290.87" arrivalPosLat="0.00" arrivalSpeed="27.75" duration="54.70" routeLength="1049.50" waitingTime="0.00" waitingCount="0" stopTime="0.00" timeLoss="9.44" rerouteNo="1" devices="tripinfo_NeighborhoodtoCalamba.1 routing_NeighborhoodtoCalamba.1" vType="bus" speedFactor="1.00" vaporized=""/>
    <tripinfo id="StaRosatoBanlic-Mamatid.0" depart="84.00" departLane="-549232953#10_1" departPos="8.10" departPosLat="0.00" departSpeed="27.78" departDelay="0.00" arrival="272.40" arrivalLane="-1346113028#0_1" arrivalPos="507.75" arrivalPosLat="0.00" arrivalSpeed="8.31" duration="188.40" routeLength="3132.81" waitingTime="0.00" waitingCount="0" stopTime="0.00" timeLoss="2.59" rerouteNo="1" devices="tripinfo_StaRosatoBanlic-Mamatid.0 routing_StaRosatoBanlic-Mamatid.0" vType="jeep" speedFactor="1.00" vaporized=""/>
    <tripinfo id="NeighborhoodtoStaRosa.0" depart="92.30" departLane="-32425190#1_1" departPos="5.10" departPosLat="0.00" departSpeed="14.95" departDelay="0.00" arrival="275.40" arrivalLane="549232953#10_1" arrivalPos="967.06" arrivalPosLat="-0.00" arrivalSpeed="29.80" duration="183.10" routeLength="2483.86" waitingTime="81.00" waitingCount="2" stopTime="0.00" timeLoss="92.48" rerouteNo="1" devices="tripinfo_NeighborhoodtoStaRosa.0 routing_NeighborhoodtoStaRosa.0" vType="car" speedFactor="1.08" vaporized=""/>
    <tripinfo id="CalambatoStaRosa.0" depart="35.30" departLane="32425220#0_1" departPos="5.10" departPosLat="0.00" departSpeed="23.28" departDelay="0.00" arrival="288.60" arrivalLane="549232953#10_1" arrivalPos="967.06" arrivalPosLat="0.00" arrivalSpeed="23.20" duration="253.30" routeLength="3155.57" waitingTime="109.10" waitingCount="1" stopTime="0.00" timeLoss="117.67" rerouteNo="1" devices="tripinfo_CalambatoStaRosa.0 routing_CalambatoStaRosa.0" vType="car" speedFactor="0.84" vaporized=""/>
    <tripinfo id="StaRosatoCalamba.6" depart="129.90" departLane="-549232953#10_2" departPos="2.30" departPosLat="0.00" departSpeed="27.90" departDelay="0.00" arrival="290.60" arrivalLane="-32425220#0_1" arrivalPos="290.87" arrivalPosLat="-0.00" arrivalSpeed="27.68" duration="160.70" routeLength="3155.07" waitingTime="36.80" waitingCount="2" stopTime="0.00" timeLoss="47.55" rerouteNo="1" devices="tripinfo_StaRosatoCalamba.6 routing_StaRosatoCalamba.6" vType="motorcycle" speedFactor="1.00" vaporized=""/>
    <tripinfo id="StaRosatoCalamba.5" depart="125.80" departLane="-549232953#10_1" departPos="5.10" departPosLat="0.00" departSpeed="27.99" departDelay="0.00" arrival="294.40" arrivalLane="-32425220#0_2" arrivalPos="290.87" arrivalPosLat="0.00" arrivalSpeed="27.93" duration="168.60" routeLength="3152.27" waitingTime="45.70" waitingCount="1" stopTime="0.00" timeLoss="55.88" rerouteNo="1" devices="tripinfo_StaRosatoCalamba.5 routing_StaRosatoCalamba.5" vType="car" speedFactor="1.01" vaporized=""/>
    <tripinfo id="Banlic-MamatidtoCalamba.0" depart="13.90" departLane="1346113028#0_1" departPos="5.10" departPosLat="0.00" departSpeed="7.97" departDelay="0.00" arrival="296.60" arrivalLane="-32425220#0_1" arrivalPos="290.87" arrivalPosLat="0.00" arrivalSpeed="26.57" duration="282.70" routeLength="1742.53" waitingTime="134.00" waitingCount="1" stopTime="0.00" timeLoss="141.02" rerouteNo="1" devices="tripinfo_Banlic-MamatidtoCalamba.0 routing_Banlic-MamatidtoCalamba.0" vType="car" speedFactor="0.96" vaporized=""/>
    <tripinfo id="Banlic-MamatidtoCalamba.1" depart="62.00" departLane="1346113028#0_1" departPos="7.20" departPosLat="0.00" departSpeed="8.23" departDelay="0.00" arrival="303.40" arrivalLane="-32425220#0_1" arrivalPos="290.87" arrivalPosLat="0.00" arrivalSpeed="27.43" duration="241.40" routeLength="1740.43" waitingTime="88.00" waitingCount="1" stopTime="0.00" timeLoss="104.45" rerouteNo="1" devices="tripinfo_Banlic-MamatidtoCalamba.1 routing_Banlic-MamatidtoCalamba.1" vType="truck" speedFactor="0.99" vaporized=""/>
    <tripinfo id="CalambatoBanlic-Mamatid.0" depart="40.30" departLane="32425220#0_2" departPos="2.30" departPosLat="0.00" departSpeed="25.10" departDelay="0.00" arrival="305.10" arrivalLane="-1346113028#0_1" arrivalPos="507.75" arrivalPosLat="-0.00" arrivalSpeed="7.36" duration="264.80" routeLength="1740.27" waitingTime="104.10" waitingCount="1" stopTime="0.00" timeLoss="114.89" rerouteNo="1" devices="tripinfo_CalambatoBanlic-Mamatid.0 routing_CalambatoBanlic-Mamatid.0" vType="motorcycle" speedFactor="0.90" vaporized=""/>
    <tripinfo id="CalambatoBanlic-Mamatid.1" depart="54.60" departLane="32425220#0_1" departPos="8.10" departPosLat="0.00" departSpeed="27.78" departDelay="0.00" arrival="307.10" arrivalLane="-1346113028#0_1" arrivalPos="507.75" arrivalPosLat="0.00" arrivalSpeed="8.29" duration="252.50" routeLength="1734.47" waitingTime="92.00" waitingCount="1" stopTime="0.00" timeLoss="117.25" rerouteNo="1" devices="tripinfo_CalambatoBanlic-Mamatid.1 routing_CalambatoBanlic-Mamatid.1" vType="jeep" speedFactor="1.00" vaporized=""/>
    <tripinfo id="Banlic-MamatidtoCalamba.2" depart="113.40" departLane="1346113028#0_1" departPos="8.10" departPosLat="0.00" departSpeed="8.33" departDelay="0.00" arrival="307.10" arrivalLane="-32425220#0_1" arrivalPos="290.87" arrivalPosLat="0.00" arrivalSpeed="27.75" duration="193.70" routeLength="1739.53" waitingTime="41.70" waitingCount="1" stopTime="0.00" timeLoss="58.52" rerouteNo="1" devices="tripinfo_Banlic-MamatidtoCalamba.2 routing_Banlic-MamatidtoCalamba.2" vType="jeep" speedFactor="1.00" vaporized=""/>
    <tripinfo id="Banlic-MamatidtoCalamba.4" depart="150.30" departLane="1346113028#0_1" departPos="5.10" departPosLat="0.00" departSpeed="7.79" departDelay="0.00" arrival="310.40" arrivalLane="-32425220#0_2" arrivalPos="290.87" arrivalPosLat="0.00" arrivalSpeed="25.95" duration="160.10" routeLength="1742.53" waitingTime="0.20" waitingCount="1" stopTime="0.00" timeLoss="15.13" rerouteNo="1" devices="tripinfo_Banlic-MamatidtoCalamba.4 routing_Banlic-MamatidtoCalamba.4" vType="car" speedFactor="0.93" vaporized=""/>
    <tripinfo id="Banlic-MamatidtoCalamba.3" depart="129.20" departLane="1346113028#0_1" departPos="5.10" departPosLat="0.00" departSpeed="7.12" departDelay="0.00" arrival="311.90" arrivalLane="-32425220#0_1" arrivalPos="290.87" arrivalPosLat="0.00" arrivalSpeed="23.67" duration="182.70" routeLength="1742.53" waitingTime="10.50" waitingCount="1" stopTime="0.00" timeLoss="24.16" rerouteNo="1" devices="tripinfo_Banlic-MamatidtoCalamba.3 routing_Banlic-MamatidtoCalamba.3" vType="car" speedFactor="0.85" vaporized=""/>
    <tripinfo id="StaRosatoNeighborhood.0" depart="214.60" departLane="-549232953#10_1" departPos="5.10" departPosLat="0.00" departSpeed="26.79" departDelay="0.00" arrival="318.30" arrivalLane="32425190#1_1" arrivalPos="142.43" arrivalPosLat="0.00" arrivalSpeed="13.36" duration="103.70" routeLength="2475.52" waitingTime="0.00" waitingCount="0" stopTime="0.00" timeLoss="3.18" rerouteNo="1" devices="tripinfo_StaRosatoNeighborhood.0 routing_StaRosatoNeighborhood.0" vType="car" speedFactor="0.96" vaporized=""/>
    <tripinfo id="CalambatoStaRosa.1" depart="57.10" departLane="32425220#0_2" departPos="7.20" departPosLat="0.00" departSpeed="26.46" departDelay="0.00" arrival="322.20" arrivalLane="549232953#10_1" arrivalPos="967.06" arrivalPosLat="-0.00" arrivalSpeed="26.46" duration="265.10" routeLength="3153.47" waitingTime="120.10" waitingCount="2" stopTime="0.00" timeLoss="145.93" rerouteNo="1" devices="tripinfo_CalambatoStaRosa.1 routing_CalambatoStaRosa.1" vType="truck" speedFactor="0.95" vaporized=""/>
    <tripinfo id="CalambatoStaRosa.2" depart="63.70" departLane="32425220#0_1" departPos="7.20" departPosLat="0.00" departSpeed="26.35" departDelay="0.00" arrival="322.60" arrivalLane="549232953#10_2" arrivalPos="967.06" arrivalPosLat="0.00" arrivalSpeed="26.31" duration="258.90" routeLength="3153.47" waitingTime="119.40" waitingCount="1" stopTime="0.00" timeLoss="139.13" rerouteNo="1" devices="tripinfo_CalambatoStaRosa.2 routing_CalambatoStaRosa.2" vType="truck" speedFactor="0.95" vaporized=""/>
    <tripinfo id="CalambatoStaRosa.3" depart="82.10" departLane="32425220#0_1" departPos="7.20" departPosLat="0.00" departSpeed="27.35" departDelay="0.00" arrival="323.90" arrivalLane="549232953#10_1" arrivalPos="967.06" arrivalPosLat="-0.00" arrivalSpeed="27.30" duration="241.80" routeLength="3153.47" waitingTime="94.70" waitingCount="2" stopTime="0.00" timeLoss="126.43" rerouteNo="1" devices="tripinfo_CalambatoStaRosa.3 routing_CalambatoStaRosa.3" vType="truck" speedFactor="0.98" vaporized=""/>
    <tripinfo id="CalambatoStaRosa.4" depart="125.70" departLane="32425220#0_1" departPos="8.10" departPosLat="0.00" departSpeed="27.78" departDelay="0.00" arrival="323.90" arrivalLane="549232953#10_2" arrivalPos="967.06" arrivalPosLat="0.00" arrivalSpeed="27.58" duration="198.20" routeLength="3152.57" waitingTime="58.10" waitingCount="1" stopTime="0.00" timeLoss="84.68" rerouteNo="1" devices="tripinfo_CalambatoStaRosa.4 routing_CalambatoStaRosa.4" vType="jeep" speedFactor="1.00" vaporized=""/>
    <tripinfo id="CalambatoStaRosa.5" depart="131.40" departLane="32425220#0_2" departPos="5.10" departPosLat="0.00" departSpeed="27.91" departDelay="0.00" arrival="325.30" arrivalLane="549232953#10_2" arrivalPos="967.06" arrivalPosLat="0.00" arrivalSpeed="27.82" duration="193.90" routeLength="3155.57" waitingTime="53.80" waitingCount="1" stopTime="0.00" timeLoss="80.76" rerouteNo="1" devices="tripinfo_CalambatoStaRosa.5 routing_CalambatoStaRosa.5" vType="car" speedFactor="1.00" vaporized=""/>
    <tripinfo id="CalambatoStaRosa.6" depart="136.00" departLane="32425220#0_1" departPos="5.10" departPosLat="0.00" departSpeed="26.58" departDelay="0.00" arrival="325.30" arrivalLane="549232953#10_1" arrivalPos="967.06" arrivalPosLat="-0.00" arrivalSpeed="26.57" duration="189.30" routeLength="3155.57" waitingTime="40.00" waitingCount="2" stopTime="0.00" timeLoss="70.54" rerouteNo="1" devices="tripinfo_CalambatoStaRosa.6 routing_CalambatoStaRosa.6" vType="car" speedFactor="0.96" vaporized=""/>
    <tripinfo id="CalambatoStaRosa.7" depart="142.00" departLane="32425220#0_2" departPos="5.10" departPosLat="0.00" departSpeed="28.06" departDelay="0.00" arrival="326.50" arrivalLane="549232953#10_2" arrivalPos="967.06" arrivalPosLat="0.00" arrivalSpeed="28.03" duration="184.50" routeLength="3155.57" waitingTime="44.40" waitingCount="1" stopTime="0.00" timeLoss="71.98" rerouteNo="1" devices="tripinfo_CalambatoStaRosa.7 routing_CalambatoStaRosa.7" vType="car" speedFactor="1.01" vaporized=""/>
    <tripinfo id="CalambatoStaRosa.8" depart="160.50" departLane="32425220#0_2" departPos="5.10" departPosLat="0.00" departSpeed="27.52" departDelay="0.00" arrival="326.60" arrivalLane="549232953#10_1" arrivalPos="967.06" arrivalPosLat="-0.00" arrivalSpeed="27.51" duration="166.10" routeLength="3155.57" waitingTime="32.40" waitingCount="1" stopTime="0.00" timeLoss="51.36" rerouteNo="1" devices="tripinfo_CalambatoStaRosa.8 routing_CalambatoStaRosa.8" vType="car" speedFactor="0.99" vaporized=""/>
    <tripinfo id="CalambatoBanlic-Mamatid.2" depart="136.50" departLane="32425220#0_1" departPos="8.10" departPosLat="0.00" departSpeed="21.74" departDelay="0.00" arrival="338.40" arrivalLane="-1346113028#0_1" arrivalPos="507.75" arrivalPosLat="-0.00" arrivalSpeed="8.31" duration="201.90" routeLength="1734.47" waitingTime="36.70" waitingCount="2" stopTime="0.00" timeLoss="66.66" rerouteNo="1" devices="tripinfo_CalambatoBanlic-Mamatid.2 routing_CalambatoBanlic-Mamatid.2" vType="jeep" speedFactor="1.00" vaporized=""/>
    <tripinfo id="Banlic-MamatidtoStaRosa.0" depart="75.60" departLane="1346113028#0_1" departPos="12.10" departPosLat="0.00" departSpeed="8.33" departDelay="0.00" arrival="355.20" arrivalLane="549232953#10_1" arrivalPos="967.06" arrivalPosLat="-0.00" arrivalSpeed="27.77" duration="279.60" routeLength="3118.43" waitingTime="77.80" waitingCount="1" stopTime="0.00" timeLoss="95.58" rerouteNo="1" devices="tripinfo_Banlic-MamatidtoStaRosa.0 routing_Banlic-MamatidtoStaRosa.0" vType="bus" speedFactor="1.00" vaporized=""/>
    <tripinfo id="StaRosatoCalamba.7" depart="261.90" departLane="-549232953#10_2" departPos="5.10" departPosLat="0.00" departSpeed="26.12" departDelay="0.00" arrival="382.90" arrivalLane="-32425220#0_1" arrivalPos="290.87" arrivalPosLat="-0.00" arrivalSpeed="26.07" duration="121.00" routeLength="3152.27" waitingTime="0.00" waitingCount="0" stopTime="0.00" timeLoss="0.30" rerouteNo="1" devices="tripinfo_StaRosatoCalamba.7 routing_StaRosatoCalamba.7" vType="car" speedFactor="0.94" vaporized=""/>
    <tripinfo id="Banlic-MamatidtoStaRosa.1" depart="191.50" departLane="1346113028#0_1" departPos="8.10" departPosLat="0.00" departSpeed="8.33" departDelay="0.00" arrival="385.50" arrivalLane="549232953#10_1" arrivalPos="967.06" arrivalPosLat="-0.00" arrivalSpeed="27.78" duration="194.00" routeLength="3122.43" waitingTime="0.00" waitingCount="0" stopTime="0.00" timeLoss="9.45" rerouteNo="1" devices="tripinfo_Banlic-MamatidtoStaRosa.1 routing_Banlic-MamatidtoStaRosa.1" vType="jeep" speedFactor="1.00" vaporized=""/>
    <personinfo id="InasaltoJeepPila.0" depart="0.00" type="ped" speedFactor="0.97" duration="392.10" waitingTime="336.90" timeLoss="342.50" traveltime="392.10">
        <walk depart="0.00" departPos="0.00" arrival="392.10" arrivalPos="25.71" duration="392.10" routeLength="67.08" timeLoss="342.50" maxSpeed="1.35" waitingTime="336.90"/>
    </personinfo>
    <personinfo id="SavemoretoJeepPila.1" depart="144.00" type="ped" speedFactor="0.92" duration="250.30" waitingTime="127.50" timeLoss="139.66" traveltime="250.30">
        <walk depart="144.00" departPos="0.00" arrival="394.30" arrivalPos="25.71" duration="250.30" routeLength="140.94" timeLoss="139.66" maxSpeed="1.27" waitingTime="127.50"/>
    </personinfo>
    <personinfo id="SavemoretoPalengke.0" depart="0.00" type="ped" speedFactor="1.06" duration="394.60" waitingTime="263.90" timeLoss="291.59" traveltime="394.60">
        <walk depart="0.00" departPos="0.00" arrival="394.60" arrivalPos="34.28" duration="394.60" routeLength="151.65" timeLoss="291.59" maxSpeed="1.47" waitingTime="263.90"/>
    </personinfo>
    <personinfo id="PalengketoJeepPila.2" depart="288.00" type="ped" speedFactor="0.97" duration="107.90" waitingTime="59.50" timeLoss="64.16" traveltime="107.90">
        <walk depart="288.00" departPos="0.00" arrival="395.90" arrivalPos="25.71" duration="107.90" routeLength="58.82" timeLoss="64.16" maxSpeed="1.34" waitingTime="59.50"/>
    </personinfo>
    <personinfo id="InasaltoJeepPila.1" depart="144.00" type="ped" speedFactor="0.87" duration="252.40" waitingTime="190.50" timeLoss="196.96" traveltime="252.40">
        <walk depart="144.00" departPos="0.00" arrival="396.40" arrivalPos="25.71" duration="252.40" routeLength="67.08" timeLoss="196.96" maxSpeed="1.21" waitingTime="190.50"/>
    </personinfo>
    <tripinfo id="StaRosatoBanlic-Mamatid.1" depart="142.10" departLane="-549232953#10_1" departPos="2.30" departPosLat="0.00" departSpeed="27.09" departDelay="0.00" arrival="396.90" arrivalLane="-1346113028#0_1" arrivalPos="507.75" arrivalPosLat="0.00" arrivalSpeed="8.09" duration="254.80" routeLength="3138.61" waitingTime="49.30" waitingCount="2" stopTime="0.00" timeLoss="64.01" rerouteNo="1" devices="tripinfo_StaRosatoBanlic-Mamatid.1 routing_StaRosatoBanlic-Mamatid.1" vType="tricycle" speedFactor="0.98" vaporized=""/>
    <personinfo id="InasaltoPalengke.2" depart="288.00" type="ped" speedFactor="0.99" duration="109.00" waitingTime="70.10" timeLoss="73.96" traveltime="109.00">
        <walk depart="288.00" departPos="0.00" arrival="397.00" arrivalPos="34.28" duration="109.00" routeLength="48.06" timeLoss="73.96" maxSpeed="1.37" waitingTime="70.10"/>
    </personinfo>
    <tripinfo id="StaRosatoNeighborhood.1" depart="297.00" departLane="-549232953#10_2" departPos="8.10" departPosLat="0.00" departSpeed="27.78" departDelay="0.00" arrival="398.70" arrivalLane="32425190#1_1" arrivalPos="142.43" arrivalPosLat="-0.00" arrivalSpeed="13.86" duration="101.70" routeLength="2472.52" waitingTime="0.00" waitingCount="0" stopTime="0.00" timeLoss="4.90" rerouteNo="1" devices="tripinfo_StaRosatoNeighborhood.1 routing_StaRosatoNeighborhood.1" vType="jeep" speedFactor="1.00" vaporized=""/>
    <tripinfo id="StaRosatoBanlic-Mamatid.2" depart="157.90" departLane="-549232953#10_2" departPos="8.10" departPosLat="0.00" departSpeed="27.78" departDelay="0.00" arrival="399.10" arrivalLane="-1346113028#0_1" arrivalPos="507.75" arrivalPosLat="0.00" arrivalSpeed="8.28" duration="241.20" routeLength="3132.81" waitingTime="39.50" waitingCount="1" stopTime="0.00" timeLoss="55.29" rerouteNo="1" devices="tripinfo_StaRosatoBanlic-Mamatid.2 routing_StaRosatoBanlic-Mamatid.2" vType="jeep" speedFactor="1.00" vaporized=""/>
    <personinfo id="SavemoretoInasal.1" depart="144.00" type="ped" speedFactor="1.17" duration="259.80" waitingTime="155.90" timeLoss="221.28" traveltime="259.80">
        <walk depart="144.00" departPos="0.00" arrival="403.80" arrivalPos="44.65" duration="259.80" routeLength="62.53" timeLoss="221.28" maxSpeed="1.62" waitingTime="155.90"/>
    </personinfo>
    <personinfo id="InasaltoSavemore.2" depart="288.00" type="ped" speedFactor="1.11" duration="117.20" waitingTime="72.00" timeLoss="76.63" traveltime="117.20">
        <walk depart="288.00" departPos="0.00" arrival="405.20" arrivalPos="44.65" duration="117.20" routeLength="62.53" timeLoss="76.63" maxSpeed="1.54" waitingTime="72.00"/>
    </personinfo>
    <personinfo id="PalengketoSavemore.1" depart="144.00" type="ped" speedFactor="1.03" duration="264.50" waitingTime="208.00" timeLoss="213.78" traveltime="264.50">
        <walk depart="144.00" departPos="0.00" arrival="408.50" arrivalPos="44.65" duration="264.50" routeLength="72.73" timeLoss="213.78" maxSpeed="1.43" waitingTime="208.00"/>
    </personinfo>
    <personinfo id="SavemoretoInasal.2" depart="288.00" type="ped" speedFactor="1.02" duration="122.60" waitingTime="2.80" timeLoss="78.32" traveltime="122.60">
        <walk depart="288.00" departPos="0.00" arrival="410.60" arrivalPos="44.65" duration="122.60" routeLength="62.53" timeLoss="78.32" maxSpeed="1.41" waitingTime="2.80"/>
    </personinfo>
    <personinfo id="PalengketoSavemore.0" depart="0.00" type="ped" speedFactor="0.98" duration="411.20" waitingTime="351.90" timeLoss="358.03" traveltime="411.20">
        <walk depart="0.00" departPos="0.00" arrival="411.20" arrivalPos="44.65" duration="411.20" routeLength="72.73" timeLoss="358.03" maxSpeed="1.37" waitingTime="351.90"/>
    </personinfo>
    <personinfo id="JeepPilatoPalengke.2" depart="288.00" type="ped" speedFactor="1.03" duration="124.30" waitingTime="72.00" timeLoss="77.23" traveltime="124.30">
        <walk depart="288.00" departPos="0.00" arrival="412.30" arrivalPos="34.28" duration="124.30" routeLength="67.39" timeLoss="77.23" maxSpeed="1.43" waitingTime="72.00"/>
    </personinfo>
    <personinfo id="JeepPilatoSavemore.2" depart="288.00" type="ped" speedFactor="1.07" duration="124.40" waitingTime="71.40" timeLoss="76.97" traveltime="124.40">
        <walk depart="288.00" departPos="0.00" arrival="412.40" arrivalPos="44.65" duration="124.40" routeLength="70.59" timeLoss="76.97" maxSpeed="1.49" waitingTime="71.40"/>
    </personinfo>
    <personinfo id="JeepPilatoInasal.0" depart="0.00" type="ped" speedFactor="0.95" duration="414.80" waitingTime="341.60" timeLoss="349.43" traveltime="414.80">
        <walk depart="0.00" departPos="0.00" arrival="414.80" arrivalPos="44.65" duration="414.80" routeLength="86.02" timeLoss="349.43" maxSpeed="1.32" waitingTime="341.60"/>
    </personinfo>