<?xml version="1.0" encoding="UTF-8"?>

<!-- generated on 2026-02-25 23:54:27 by Eclipse SUMO sumo Version 1.24.0
<sumoConfiguration xmlns:xsi="http://www.w3.org/2001/XMLSchema-instance" xsi:noNamespaceSchemaLocation="http://sumo.dlr.de/xsd/sumoConfiguration.xsd">

    <input>
        <net-file value="Balibago_traci/network/balibago_signalized.net.xml"/>
        <route-files value="Balibago_traci/demand/flows_slow_traffic.rou.xml"/>
        <additional-files value="Balibago_traci/additionals/balibago.poly.xml,Balibago_traci/ additionals/balibago.add.xml"/>
    </input>

    <output>
        <tripinfo-output value="Balibago_traci/output_DQN/SD_DQN_Train_Tripinfo_SLOW2.xml"/>
        <statistic-output value="Balibago_traci/output_DQN/SD_DQN_Train_Stats_SLOW2.xml"/>
    </output>

    <time>
        <begin value="0"/>
        <end value="10800"/>
        <step-length value="0.1"/>
    </time>

    <processing>
        <lateral-resolution value="0.1"/>
        <collision.action value="none"/>
        <collision.check-junctions value="false"/>
        <collision.mingap-factor value="0"/>
    </processing>

    <report>
        <no-warnings value="true"/>
    </report>

    <traci_server>
        <remote-port value="8814"/>
    </traci_server>

    <gui_only>
        <delay value="0"/>
    </gui_only>

</sumoConfiguration>
-->

<tripinfos xmlns:xsi="http://www.w3.org/2001/XMLSchema-instance" xsi:noNamespaceSchemaLocation="http://sumo.dlr.de/xsd/tripinfo_file.xsd">
    <tripinfo id="BalibagotoNuvali.0" depart="9.20" departLane="777619905_1" departPos="2.30" departPosLat="0.00" departSpeed="5.50" departDelay="0.00" arrival="75.80" arrivalLane="145507700#3_1" arrivalPos="783.31" arrivalPosLat="-0.00" arrivalSpeed="26.09" duration="66.60" routeLength="1315.67" waitingTime="0.00" waitingCount="0" stopTime="0.00" timeLoss="9.97" rerouteNo="1" devices="tripinfo_BalibagotoNuvali.0 routing_BalibagotoNuvali.0" vType="tricycle" speedFactor="0.94" vaporized=""/>
    <personinfo id="JollibeetoPalengke.0" depart="0.00" type="ped" speedFactor="1.06" duration="125.10" waitingTime="6.30" timeLoss="18.27" traveltime="125.10">
        <walk depart="0.00" departPos="10.42" arrival="125.10" arrivalPos="27.04" duration="125.10" routeLength="157.27" timeLoss="18.27" maxSpeed="1.47" waitingTime="6.30"/>
    </personinfo>
    <personinfo id="PalengketoJollibee.0" depart="0.00" type="ped" speedFactor="0.95" duration="138.10" waitingTime="0.00" timeLoss="13.55" traveltime="138.10">
        <walk depart="0.00" departPos="25.00" arrival="138.10" arrivalPos="5.21" duration="138.10" routeLength="164.52" timeLoss="13.55" maxSpeed="1.32" waitingTime="0.00"/>
    </personinfo>
    <tripinfo id="BiñantoBalibago.0" depart="90.20" departLane="553887793#0_1" departPos="12.10" departPosLat="0.00" departSpeed="27.78" departDelay="0.00" arrival="152.70" arrivalLane="-32083237#0_1" arrivalPos="36.46" arrivalPosLat="0.00" arrivalSpeed="11.32" duration="62.50" routeLength="992.33" waitingTime="0.00" waitingCount="0" stopTime="0.00" timeLoss="23.09" rerouteNo="1" devices="tripinfo_BiñantoBalibago.0 routing_BiñantoBalibago.0" vType="bus" speedFactor="1.00" vaporized=""/>
    <personinfo id="PalengketoJollibee.1" depart="60.00" type="ped" speedFactor="1.01" duration="130.00" waitingTime="0.00" timeLoss="13.05" traveltime="130.00">
        <walk depart="60.00" departPos="25.00" arrival="190.00" arrivalPos="5.21" duration="130.00" routeLength="164.52" timeLoss="13.05" maxSpeed="1.41" waitingTime="0.00"/>
    </personinfo>
    <personinfo id="JollibeetoPalengke.1" depart="60.00" type="ped" speedFactor="0.94" duration="133.90" waitingTime="0.00" timeLoss="13.22" traveltime="133.90">
        <walk depart="60.00" departPos="10.42" arrival="193.90" arrivalPos="27.04" duration="133.90" routeLength="157.27" timeLoss="13.22" maxSpeed="1.30" waitingTime="0.00"/>
    </personinfo>
    <tripinfo id="BalibagotoBiñan.0" depart="37.20" departLane="145507698_1" departPos="2.30" departPosLat="0.00" departSpeed="9.75" departDelay="0.00" arrival="226.50" arrivalLane="-553887793#0_1" arrivalPos="201.31" arrivalPosLat="0.00" arrivalSpeed="29.84" duration="189.30" routeLength="1690.81" waitingTime="75.60" waitingCount="1" stopTime="0.00" timeLoss="104.80" rerouteNo="1" devices="tripinfo_BalibagotoBiñan.0 routing_BalibagotoBiñan.0" vType="tricycle" speedFactor="1.07" vaporized=""/>
    <tripinfo id="CalambatoBalibago.0" depart="150.70" departLane="185930141#0_2" departPos="8.10" departPosLat="0.00" departSpeed="27.78" departDelay="0.00" arrival="231.80" arrivalLane="89908334_1" arrivalPos="36.84" arrivalPosLat="0.00" arrivalSpeed="9.00" duration="81.10" routeLength="908.17" waitingTime="10.90" waitingCount="1" stopTime="0.00" timeLoss="39.89" rerouteNo="1" devices="tripinfo_CalambatoBalibago.0 routing_CalambatoBalibago.0" vType="jeep" speedFactor="1.00" vaporized=""/>
    <personinfo id="JollibeetoPalengke.2" depart="120.00" type="ped" speedFactor="1.01" duration="124.40" waitingTime="0.00" timeLoss="12.33" traveltime="124.40">
        <walk depart="120.00" departPos="10.42" arrival="244.40" arrivalPos="27.04" duration="124.40" routeLength="157.27" timeLoss="12.33" maxSpeed="1.40" waitingTime="0.00"/>
    </personinfo>
    <tripinfo id="NuvalitoCalamba.0" depart="45.30" departLane="-145507700#3_1" departPos="7.20" departPosLat="0.00" departSpeed="28.04" departDelay="0.00" arrival="245.80" arrivalLane="-185930141#0_2" arrivalPos="428.88" arrivalPosLat="0.00" arrivalSpeed="28.01" duration="200.50" routeLength="2319.66" waitingTime="75.20" waitingCount="1" stopTime="0.00" timeLoss="116.60" rerouteNo="1" devices="tripinfo_NuvalitoCalamba.0 routing_NuvalitoCalamba.0" vType="truck" speedFactor="1.01" vaporized=""/>
    <tripinfo id="BalibagotoCalamba.0" depart="80.90" departLane="145507698_1" departPos="7.55" departPosLat="0.00" departSpeed="0.00" departDelay="0.00" arrival="246.70" arrivalLane="-185930141#0_1" arrivalPos="428.88" arrivalPosLat="-0.00" arrivalSpeed="27.74" duration="165.80" routeLength="1523.59" waitingTime="31.20" waitingCount="1" stopTime="0.00" timeLoss="81.62" rerouteNo="1" devices="tripinfo_BalibagotoCalamba.0 routing_BalibagotoCalamba.0" vType="jeep" speedFactor="1.00" vaporized=""/>
    <tripinfo id="NuvalitoCalamba.1" depart="121.00" departLane="-145507700#3_1" departPos="8.10" departPosLat="0.00" departSpeed="27.78" departDelay="0.00" arrival="247.50" arrivalLane="-185930141#0_2" arrivalPos="428.88" arrivalPosLat="0.00" arrivalSpeed="27.75" duration="126.50" routeLength="2318.76" waitingTime="0.00" waitingCount="0" stopTime="0.00" timeLoss="41.87" rerouteNo="1" devices="tripinfo_NuvalitoCalamba.1 routing_NuvalitoCalamba.1" vType="jeep" speedFactor="1.00" vaporized=""/>
    <personinfo id="JollibeetoSTI.0" depart="0.00" type="ped" speedFactor="1.08" duration="249.40" waitingTime="0.80" timeLoss="26.57" traveltime="249.40">
        <walk depart="0.00" departPos="10.42" arrival="249.40" arrivalPos="19.02" duration="249.40" routeLength="335.01" timeLoss="26.57" maxSpeed="1.50" waitingTime="0.80"/>
    </personinfo>
    <personinfo id="PalengketoJollibee.2" depart="120.00" type="ped" speedFactor="0.97" duration="135.70" waitingTime="0.00" timeLoss="13.57" traveltime="135.70">
        <walk depart="120.00" departPos="25.00" arrival="255.70" arrivalPos="5.21" duration="135.70" routeLength="164.52" timeLoss="13.57" maxSpeed="1.35" waitingTime="0.00"/>
    </personinfo>
    <tripinfo id="CalambatoNuvali.0" depart="49.20" departLane="185930141#0_2" departPos="5.10" departPosLat="0.00" departSpeed="32.61" departDelay="0.00" arrival="271.40" arrivalLane="145507700#3_1" arrivalPos="783.31" arrivalPosLat="-0.00" arrivalSpeed="32.55" duration="222.20" routeLength="2332.87" waitingTime="121.30" waitingCount="2" stopTime="0.00" timeLoss="149.31" rerouteNo="1" devices="tripinfo_CalambatoNuvali.0 routing_CalambatoNuvali.0" vType="car" speedFactor="1.17" vaporized=""/>
    <tripinfo id="BalibagotoStaRosa.0" depart="55.40" departLane="145507698_1" departPos="7.55" departPosLat="0.00" departSpeed="0.00" departDelay="0.00" arrival="273.60" arrivalLane="-92878383#0_1" arrivalPos="603.68" arrivalPosLat="0.00" arrivalSpeed="8.27" duration="218.20" routeLength="1986.48" waitingTime="0.00" waitingCount="0" stopTime="0.00" timeLoss="29.01" rerouteNo="1" devices="tripinfo_BalibagotoStaRosa.0 routing_BalibagotoStaRosa.0" vType="bus" speedFactor="1.00" vaporized=""/>
    <tripinfo id="BiñantoCalamba.0" depart="178.20" departLane="553887793#0_1" departPos="2.30" departPosLat="0.00" departSpeed="28.88" departDelay="0.00" arrival="276.00" arrivalLane="-185930141#0_1" arrivalPos="428.88" arrivalPosLat="0.00" arrivalSpeed="28.65" duration="97.80" routeLength="1510.47" waitingTime="38.30" waitingCount="1" stopTime="0.00" timeLoss="45.50" rerouteNo="1" devices="tripinfo_BiñantoCalamba.0 routing_BiñantoCalamba.0" vType="motorcycle" speedFactor="1.04" vaporized=""/>
    <personinfo id="PalengketoSTI.0" depart="0.00" type="ped" speedFactor="1.07" duration="278.30" waitingTime="1.20" timeLoss="29.95" traveltime="278.30">
        <walk depart="0.00" departPos="25.00" arrival="278.30" arrivalPos="19.02" duration="278.30" routeLength="369.14" timeLoss="29.95" maxSpeed="1.49" waitingTime="1.20"/>
    </personinfo>
    <tripinfo id="NuvalitoStaRosa.0" depart="111.10" departLane="-145507700#3_1" departPos="2.30" departPosLat="0.00" departSpeed="31.39" departDelay="0.00" arrival="285.40" arrivalLane="-92878383#0_1" arrivalPos="603.68" arrivalPosLat="-0.00" arrivalSpeed="9.39" duration="174.30" routeLength="2602.84" waitingTime="0.00" waitingCount="0" stopTime="0.00" timeLoss="10.88" rerouteNo="1" devices="tripinfo_NuvalitoStaRosa.0 routing_NuvalitoStaRosa.0" vType="tricycle" speedFactor="1.13" vaporized=""/>
    <personinfo id="STItoSakayan.0" depart="0.00" type="ped" speedFactor="1.03" duration="290.00" waitingTime="0.00" timeLoss="28.80" traveltime="290.00">
        <walk depart="0.00" departPos="25.00" arrival="290.00" arrivalPos="27.04" duration="290.00" routeLength="373.08" timeLoss="28.80" maxSpeed="1.43" waitingTime="0.00"/>
    </personinfo>
    <personinfo id="JollibeetoPalengke.3" depart="180.00" type="ped" speedFactor="1.08" duration="116.20" waitingTime="0.00" timeLoss="11.61" traveltime="116.20">
        <walk depart="180.00" departPos="10.42" arrival="296.20" arrivalPos="27.04" duration="116.20" routeLength="157.27" timeLoss="11.61" maxSpeed="1.50" waitingTime="0.00"/>
    </personinfo>
    <personinfo id="JollibeetoSTI.1" depart="60.00" type="ped" speedFactor="1.12" duration="245.60" waitingTime="3.00" timeLoss="30.10" traveltime="245.60">
        <walk depart="60.00" departPos="10.42" arrival="305.60" arrivalPos="19.02" duration="245.60" routeLength="335.01" timeLoss="30.10" maxSpeed="1.55" waitingTime="3.00"/>
    </personinfo>
    <tripinfo id="BalibagotoBiñan.1" depart="185.50" departLane="145507698_1" departPos="7.55" departPosLat="0.00" departSpeed="0.00" departDelay="0.00" arrival="313.40" arrivalLane="-553887793#0_2" arrivalPos="201.31" arrivalPosLat="-0.10" arrivalSpeed="27.76" duration="127.90" routeLength="1682.41" waitingTime="0.00" waitingCount="0" stopTime="0.00" timeLoss="37.83" rerouteNo="1" devices="tripinfo_BalibagotoBiñan.1 routing_BalibagotoBiñan.1" vType="jeep" speedFactor="1.00" vaporized=""/>
    <personinfo id="PalengketoJollibee.3" depart="180.00" type="ped" speedFactor="0.99" duration="134.00" waitingTime="0.70" timeLoss="14.31" traveltime="134.00">
        <walk depart="180.00" departPos="25.00" arrival="314.00" arrivalPos="5.21" duration="134.00" routeLength="164.52" timeLoss="14.31" maxSpeed="1.37" waitingTime="0.70"/>
    </personinfo>
    <personinfo id="STItoSakayan.1" depart="60.00" type="ped" speedFactor="1.04" duration="286.40" waitingTime="0.10" timeLoss="29.05" traveltime="286.40">
        <walk depart="60.00" departPos="25.00" arrival="346.40" arrivalPos="27.04" duration="286.40" routeLength="373.08" timeLoss="29.05" maxSpeed="1.45" waitingTime="0.10"/>
    </personinfo>
    <personinfo id="JollibeetoPalengke.4" depart="240.00" type="ped" speedFactor="1.03" duration="122.10" waitingTime="0.00" timeLoss="12.19" traveltime="122.10">
        <walk depart="240.00" departPos="10.42" arrival="362.10" arrivalPos="27.04" duration="122.10" routeLength="157.27" timeLoss="12.19" maxSpeed="1.43" waitingTime="0.00"/>
    </personinfo>
    <personinfo id="PalengketoJollibee.4" depart="240.00" type="ped" speedFactor="1.02" duration="128.70" waitingTime="0.00" timeLoss="13.02" traveltime="128.70">
        <walk depart="240.00" departPos="25.00" arrival="368.70" arrivalPos="5.21" duration="128.70" routeLength="164.52" timeLoss="13.02" maxSpeed="1.42" waitingTime="0.00"/>
    </personinfo>
    <personinfo id="PalengketoSTI.1" depart="60.00" type="ped" speedFactor="0.94" duration="315.80" waitingTime="0.60" timeLoss="32.21" traveltime="315.80">
        <walk depart="60.00" departPos="25.00" arrival="375.80" arrivalPos="19.02" duration="315.80" routeLength="369.14" timeLoss="32.21" maxSpeed="1.30" waitingTime="0.60"/>
    </personinfo>
    <tripinfo id="StaRosatoBiñan.0" depart="38.20" departLane="92878383#0_1" departPos="2.30" departPosLat="0.00" departSpeed="8.55" departDelay="0.00" arrival="381.50" arrivalLane="-553887793#0_1" arrivalPos="201.31" arrivalPosLat="-0.00" arrivalSpeed="28.30" duration="343.30" routeLength="1610.52" waitingTime="200.90" waitingCount="1" stopTime="0.00" timeLoss="206.04" rerouteNo="1" devices="tripinfo_StaRosatoBiñan.0 routing_StaRosatoBiñan.0" vType="motorcycle" speedFactor="1.03" vaporized=""/>
    <personinfo id="JollibeetoSTI.2" depart="120.00" type="ped" speedFactor="1.02" duration="265.90" waitingTime="1.60" timeLoss="28.44" traveltime="265.90">
        <walk depart="120.00" departPos="10.42" arrival="385.90" arrivalPos="19.02" duration="265.90" routeLength="335.01" timeLoss="28.44" maxSpeed="1.41" waitingTime="1.60"/>
    </personinfo>
    <tripinfo id="StaRosatoBalibago.0" depart="5.30" departLane="92878383#0_1" departPos="2.30" departPosLat="0.00" departSpeed="9.27" departDelay="0.00" arrival="387.30" arrivalLane="-32083237#0_1" arrivalPos="36.46" arrivalPosLat="0.00" arrivalSpeed="15.07" duration="382.00" routeLength="1364.26" waitingTime="244.00" waitingCount="1" stopTime="0.00" timeLoss="261.48" rerouteNo="1" devices="tripinfo_StaRosatoBalibago.0 routing_StaRosatoBalibago.0" vType="tricycle" speedFactor="1.11" vaporized=""/>
    <tripinfo id="CalambatoBalibago.1" depart="194.30" departLane="185930141#0_2" departPos="8.10" departPosLat="0.00" departSpeed="27.78" departDelay="0.00" arrival="387.30" arrivalLane="89908334_1" arrivalPos="36.84" arrivalPosLat="0.00" arrivalSpeed="8.93" duration="193.00" routeLength="908.17" waitingTime="122.70" waitingCount="1" stopTime="0.00" timeLoss="151.83" rerouteNo="1" devices="tripinfo_CalambatoBalibago.1 routing_CalambatoBalibago.1" vType="jeep" speedFactor="1.00" vaporized=""/>
    <tripinfo id="BiñantoStaRosa.0" depart="24.20" departLane="553887793#0_1" departPos="2.30" departPosLat="0.00" departSpeed="25.64" departDelay="0.00" arrival="391.10" arrivalLane="-92878383#0_1" arrivalPos="603.68" arrivalPosLat="-0.00" arrivalSpeed="7.61" duration="366.90" routeLength="1788.75" waitingTime="190.30" waitingCount="1" stopTime="0.00" timeLoss="199.74" rerouteNo="1" devices="tripinfo_BiñantoStaRosa.0 routing_BiñantoStaRosa.0" vType="tricycle" speedFactor="0.92" vaporized=""/>
    <personinfo id="STItoSakayan.2" depart="120.00" type="ped" speedFactor="1.08" duration="278.10" waitingTime="2.00" timeLoss="29.40" traveltime="278.10">
        <walk depart="120.00" departPos="25.00" arrival="398.10" arrivalPos="27.04" duration="278.10" routeLength="373.08" timeLoss="29.40" maxSpeed="1.50" waitingTime="2.00"/>
    </personinfo>
    <personinfo id="PalengketoTarget.0" depart="0.00" type="ped" speedFactor="1.19" duration="398.70" waitingTime="1.20" timeLoss="41.39" traveltime="398.70">
        <walk depart="0.00" departPos="25.00" arrival="398.70" arrivalPos="16.04" duration="398.70" routeLength="589.17" timeLoss="41.39" maxSpeed="1.65" waitingTime="1.20"/>
    </personinfo>
    <tripinfo id="StaRosatoBalibago.1" depart="141.60" departLane="92878383#0_1" departPos="8.10" departPosLat="0.00" departSpeed="8.33" departDelay="0.00" arrival="399.40" arrivalLane="-32083237#0_1" arrivalPos="36.46" arrivalPosLat="0.00" arrivalSpeed="11.42" duration="257.80" routeLength="1358.46" waitingTime="86.40" waitingCount="1" stopTime="0.00" timeLoss="124.43" rerouteNo="1" devices="tripinfo_StaRosatoBalibago.1 routing_StaRosatoBalibago.1" vType="jeep" speedFactor="1.00" vaporized=""/>
    <tripinfo id="BiñantoStaRosa.1" depart="250.00" departLane="553887793#0_2" departPos="5.10" departPosLat="0.00" departSpeed="30.21" departDelay="0.00" arrival="402.60" arrivalLane="-92878383#0_1" arrivalPos="603.68" arrivalPosLat="-0.00" arrivalSpeed="9.04" duration="152.60" routeLength="1785.95" waitingTime="4.70" waitingCount="1" stopTime="0.00" timeLoss="10.81" rerouteNo="1" devices="tripinfo_BiñantoStaRosa.1 routing_BiñantoStaRosa.1" vType="car" speedFactor="1.09" vaporized=""/>
    <personinfo id="TargettoSakayan.0" depart="0.00" type="ped" speedFactor="1.17" duration="407.30" waitingTime="0.00" timeLoss="40.44" traveltime="407.30">
        <walk depart="0.00" departPos="25.00" arrival="407.30" arrivalPos="27.04" duration="407.30" routeLength="596.09" timeLoss="40.44" maxSpeed="1.62" waitingTime="0.00"/>
    </personinfo>
    <tripinfo id="StaRosatoCalamba.0" depart="77.50" departLane="92878383#0_1" departPos="8.10" departPosLat="0.00" departSpeed="8.33" departDelay="0.00" arrival="408.40" arrivalLane="-185930141#0_1" arrivalPos="428.88" arrivalPosLat="-0.00" arrivalSpeed="27.78" duration="330.90" routeLength="1852.46" waitingTime="158.00" waitingCount="1" stopTime="0.00" timeLoss="181.52" rerouteNo="1" devices="tripinfo_StaRosatoCalamba.0 routing_StaRosatoCalamba.0" vType="jeep" speedFactor="1.00" vaporized=""/>
    <tripinfo id="StaRosatoCalamba.1" depart="93.90" departLane="92878383#0_1" departPos="5.10" departPosLat="0.00" departSpeed="8.52" departDelay="0.00" arrival="409.50" arrivalLane="-185930141#0_2" arrivalPos="428.88" arrivalPosLat="0.00" arrivalSpeed="28.33" duration="315.60" routeLength="1855.46" waitingTime="145.10" waitingCount="1" stopTime="0.00" timeLoss="169.20" rerouteNo="1" devices="tripinfo_StaRosatoCalamba.1 routing_StaRosatoCalamba.1" vType="car" speedFactor="1.02" vaporized=""/>
    <tripinfo id="StaRosatoCalamba.2" depart="94.80" departLane="92878383#0_1" departPos="5.10" departPosLat="0.00" departSpeed="4.99" departDelay="0.10" arrival="410.40" arrivalLane="-185930141#0_1" arrivalPos="428.88" arrivalPosLat="-0.00" arrivalSpeed="24.77" duration="315.60" routeLength="1855.46" waitingTime="129.00" waitingCount="1" stopTime="0.00" timeLoss="147.85" rerouteNo="1" devices="tripinfo_StaRosatoCalamba.2 routing_StaRosatoCalamba.2" vType="car" speedFactor="0.89" vaporized=""/>
    <tripinfo id="BalibagotoNuvali.1" depart="337.00" departLane="777619905_1" departPos="5.10" departPosLat="0.00" departSpeed="0.00" departDelay="0.00" arrival="413.90" arrivalLane="145507700#3_1" arrivalPos="783.31" arrivalPosLat="-0.00" arrivalSpeed="27.72" duration="76.90" routeLength="1312.87" waitingTime="0.00" waitingCount="0" stopTime="0.00" timeLoss="23.77" rerouteNo="1" devices="tripinfo_BalibagotoNuvali.1 routing_BalibagotoNuvali.1" vType="jeep" speedFactor="1.00" vaporized=""/>
    <tripinfo id="StaRosatoCalamba.3" depart="216.90" departLane="92878383#0_1" departPos="5.10" departPosLat="0.00" departSpeed="8.19" departDelay="0.00" arrival="415.90" arrivalLane="-185930141#0_1" arrivalPos="428.88" arrivalPosLat="0.00" arrivalSpeed="27.19" duration="199.00" routeLength="1855.46" waitingTime="22.20" waitingCount="2" stopTime="0.00" timeLoss="46.59" rerouteNo="1" devices="tripinfo_StaRosatoCalamba.3 routing_StaRosatoCalamba.3" vType="car" speedFactor="0.98" vaporized=""/>
    <tripinfo id="StaRosatoBalibago.2" depart="224.80" departLane="92878383#0_1" departPos="8.10" departPosLat="0.00" departSpeed="8.33" departDelay="0.00" arrival="417.00" arrivalLane="-32083237#0_1" arrivalPos="36.46" arrivalPosLat="0.00" arrivalSpeed="11.41" duration="192.20" routeLength="1358.46" waitingTime="23.30" waitingCount="2" stopTime="0.00" timeLoss="58.86" rerouteNo="1" devices="tripinfo_StaRosatoBalibago.2 routing_StaRosatoBalibago.2" vType="jeep" speedFactor="1.00" vaporized=""/>
    <personinfo id="PalengketoSTI.2" depart="120.00" type="ped" speedFactor="0.98" duration="304.00" waitingTime="1.80" timeLoss="32.99" traveltime="304.00">
        <walk depart="120.00" departPos="25.00" arrival="424.00" arrivalPos="19.02" duration="304.00" routeLength="369.14" timeLoss="32.99" maxSpeed="1.36" waitingTime="1.80"/>
    </personinfo>
    <personinfo id="PalengketoJollibee.5" depart="300.00" type="ped" speedFactor="1.01" duration="130.00" waitingTime="0.00" timeLoss="12.80" traveltime="130.00">
        <walk depart="300.00" departPos="25.00" arrival="430.00" arrivalPos="5.21" duration="130.00" routeLength="164.52" timeLoss="12.80" maxSpeed="1.40" waitingTime="0.00"/>
    </personinfo>
    <tripinfo id="StaRosatoNuvali.0" depart="193.30" departLane="92878383#0_1" departPos="7.20" departPosLat="0.00" departSpeed="8.98" departDelay="0.00" arrival="432.90" arrivalLane="145507700#3_1" arrivalPos="783.31" arrivalPosLat="0.00" arrivalSpeed="29.91" duration="239.60" routeLength="2443.76" waitingTime="51.80" waitingCount="1" stopTime="0.00" timeLoss="81.95" rerouteNo="1" devices="tripinfo_StaRosatoNuvali.0 routing_StaRosatoNuvali.0" vType="truck" speedFactor="1.08" vaporized=""/>
    <tripinfo id="BalibagotoStaRosa.1" depart="214.70" departLane="145507698_1" departPos="7.55" departPosLat="0.00" departSpeed="0.00" departDelay="0.00" arrival="434.30" arrivalLane="-92878383#0_1" arrivalPos="603.68" arrivalPosLat="-0.00" arrivalSpeed="8.27" duration="219.60" routeLength="1983.33" waitingTime="0.00" waitingCount="0" stopTime="0.00" timeLoss="30.92" rerouteNo="1" devices="tripinfo_BalibagotoStaRosa.1 routing_BalibagotoStaRosa.1" vType="jeep" speedFactor="1.00" vaporized=""/>
    <personinfo id="JollibeetoSTI.3" depart="180.00" type="ped" speedFactor="0.99" duration="271.80" waitingTime="0.90" timeLoss="27.41" traveltime="271.80">
        <walk depart="180.00" departPos="10.42" arrival="451.80" arrivalPos="19.02" duration="271.80" routeLength="335.01" timeLoss="27.41" maxSpeed="1.37" waitingTime="0.90"/>
    </personinfo>
    <personinfo id="JollibeetoPalengke.5" depart="300.00" type="ped" speedFactor="0.83" duration="154.10" waitingTime="2.50" timeLoss="17.83" traveltime="154.10">
        <walk depart="300.00" departPos="10.42" arrival="454.10" arrivalPos="27.04" duration="154.10" routeLength="157.27" timeLoss="17.83" maxSpeed="1.15" waitingTime="2.50"/>
    </personinfo>
    <tripinfo id="NuvalitoBiñan.0" depart="271.60" departLane="-145507700#3_1" departPos="2.30" departPosLat="0.00" departSpeed="29.49" departDelay="0.00" arrival="456.10" arrivalLane="-553887793#0_2" arrivalPos="201.31" arrivalPosLat="0.00" arrivalSpeed="29.44" duration="184.50" routeLength="2096.19" waitingTime="105.90" waitingCount="1" stopTime="0.00" timeLoss="112.20" rerouteNo="1" devices="tripinfo_NuvalitoBiñan.0 routing_NuvalitoBiñan.0" vType="motorcycle" speedFactor="1.06" vaporized=""/>
    <personinfo id="JollibeetoTarget.1" depart="60.00" type="ped" speedFactor="1.10" duration="405.80" waitingTime="1.40" timeLoss="43.55" traveltime="405.80">
        <walk depart="60.00" departPos="10.42" arrival="465.80" arrivalPos="16.04" duration="405.80" routeLength="555.05" timeLoss="43.55" maxSpeed="1.53" waitingTime="1.40"/>
    </personinfo>
    <personinfo id="PalengketoSTI.3" depart="180.00" type="ped" speedFactor="1.04" duration="289.20" waitingTime="2.50" timeLoss="34.33" traveltime="289.20">
        <walk depart="180.00" departPos="25.00" arrival="469.20" arrivalPos="19.02" duration="289.20" routeLength="369.14" timeLoss="34.33" maxSpeed="1.45" waitingTime="2.50"/>
    </personinfo>
    <personinfo id="JollibeetoTarget.0" depart="0.00" type="ped" speedFactor="0.94" duration="473.20" waitingTime="1.30" timeLoss="48.74" traveltime="473.20">
        <walk depart="0.00" departPos="10.42" arrival="473.20" arrivalPos="16.04" duration="473.20" routeLength="555.05" timeLoss="48.74" maxSpeed="1.31" waitingTime="1.30"/>
    </personinfo>
    <tripinfo id="BiñantoBalibago.1" depart="333.00" departLane="553887793#0_1" departPos="8.10" departPosLat="0.00" departSpeed="27.78" departDelay="0.00" arrival="479.30" arrivalLane="-32083237#0_1" arrivalPos="36.46" arrivalPosLat="0.00" arrivalSpeed="11.39" duration="146.30" routeLength="996.33" waitingTime="68.10" waitingCount="1" stopTime="0.00" timeLoss="106.74" rerouteNo="1" devices="tripinfo_BiñantoBalibago.1 routing_BiñantoBalibago.1" vType="jeep" speedFactor="1.00" vaporized=""/>
    <personinfo id="STItoSakayan.3" depart="180.00" type="ped" speedFactor="0.99" duration="300.80" waitingTime="0.00" timeLoss="30.26" traveltime="300.80">
        <walk depart="180.00" departPos="25.00" arrival="480.80" arrivalPos="27.04" duration="300.80" routeLength="373.08" timeLoss="30.26" maxSpeed="1.38" waitingTime="0.00"/>
    </personinfo>
    <personinfo id="JollibeetoPalengke.6" depart="360.00" type="ped" speedFactor="1.05" duration="121.10" waitingTime="0.00" timeLoss="12.82" traveltime="121.10">
        <walk depart="360.00" departPos="10.42" arrival="481.10" arrivalPos="27.04" duration="121.10" routeLength="157.27" timeLoss="12.82" maxSpeed="1.45" waitingTime="0.00"/>
    </personinfo>
    <personinfo id="TargettoSakayan.1" depart="60.00" type="ped" speedFactor="1.12" duration="427.20" waitingTime="1.90" timeLoss="44.20" traveltime="427.20">
        <walk depart="60.00" departPos="25.00" arrival="487.20" arrivalPos="27.04" duration="427.20" routeLength="596.09" timeLoss="44.20" maxSpeed="1.56" waitingTime="1.90"/>
    </personinfo>
    <tripinfo id="CalambatoStaRosa.0" depart="289.50" departLane="185930141#0_1" departPos="7.20" departPosLat="0.00" departSpeed="28.24" departDelay="0.00" arrival="494.50" arrivalLane="-92878383#0_1" arrivalPos="603.68" arrivalPosLat="0.00" arrivalSpeed="8.47" duration="205.00" routeLength="1806.49" waitingTime="23.30" waitingCount="1" stopTime="0.00" timeLoss="54.63" rerouteNo="1" devices="tripinfo_CalambatoStaRosa.0 routing_CalambatoStaRosa.0" vType="truck" speedFactor="1.02" vaporized=""/>
    <personinfo id="PalengketoJollibee.6" depart="360.00" type="ped" speedFactor="0.97" duration="135.40" waitingTime="0.00" timeLoss="13.61" traveltime="135.40">
        <walk depart="360.00" departPos="25.00" arrival="495.40" arrivalPos="5.21" duration="135.40" routeLength="164.52" timeLoss="13.61" maxSpeed="1.35" waitingTime="0.00"/>
    </personinfo>
    <tripinfo id="NuvalitoBiñan.1" depart="405.00" departLane="-145507700#3_1" departPos="2.30" departPosLat="0.00" departSpeed="30.04" departDelay="0.00" arrival="496.60" arrivalLane="-553887793#0_2" arrivalPos="201.31" arrivalPosLat="0.00" arrivalSpeed="30.00" duration="91.60" routeLength="2096.19" waitingTime="1.90" waitingCount="2" stopTime="0.00" timeLoss="20.61" rerouteNo="1" devices="tripinfo_NuvalitoBiñan.1 routing_NuvalitoBiñan.1" vType="tricycle" speedFactor="1.08" vaporized=""/>
    <tripinfo id="BiñantoNuvali.0" depart="318.30" departLane="553887793#0_1" departPos="5.10" departPosLat="0.00" departSpeed="29.34" departDelay="0.00" arrival="505.30" arrivalLane="145507700#3_1" arrivalPos="783.31" arrivalPosLat="-0.00" arrivalSpeed="29.26" duration="187.00" routeLength="2083.73" waitingTime="95.30" waitingCount="2" stopTime="0.00" timeLoss="114.95" rerouteNo="1" devices="tripinfo_BiñantoNuvali.0 routing_BiñantoNuvali.0" vType="car" speedFactor="1.06" vaporized=""/>
    <tripinfo id="CalambatoBalibago.2" depart="238.20" departLane="185930141#0_2" departPos="8.10" departPosLat="0.00" departSpeed="27.78" departDelay="0.00" arrival="512.90" arrivalLane="89908334_1" arrivalPos="36.84" arrivalPosLat="0.00" arrivalSpeed="8.88" duration="274.70" routeLength="908.17" waitingTime="194.90" waitingCount="2" stopTime="0.00" timeLoss="233.41" rerouteNo="1" devices="tripinfo_CalambatoBalibago.2 routing_CalambatoBalibago.2" vType="jeep" speedFactor="1.00" vaporized=""/>
    <personinfo id="PalengketoTarget.2" depart="120.00" type="ped" speedFactor="1.20" duration="394.60" waitingTime="2.10" timeLoss="41.66" traveltime="394.60">
        <walk depart="120.00" departPos="25.00" arrival="514.60" arrivalPos="16.04" duration="394.60" routeLength="589.17" timeLoss="41.66" maxSpeed="1.67" waitingTime="2.10"/>
    </personinfo>
    <tripinfo id="CalambatoBalibago.3" depart="267.10" departLane="185930141#0_2" departPos="8.10" departPosLat="0.00" departSpeed="27.78" departDelay="0.00" arrival="517.10" arrivalLane="89908334_1" arrivalPos="36.84" arrivalPosLat="0.00" arrivalSpeed="8.82" duration="250.00" routeLength="908.17" waitingTime="164.10" waitingCount="2" stopTime="0.00" timeLoss="208.63" rerouteNo="1" devices="tripinfo_CalambatoBalibago.3 routing_CalambatoBalibago.3" vType="jeep" speedFactor="1.00" vaporized=""/>
    <tripinfo id="BalibagotoStaRosa.2" depart="302.80" departLane="145507698_1" departPos="2.30" departPosLat="0.00" departSpeed="9.75" departDelay="0.00" arrival="520.20" arrivalLane="-92878383#0_1" arrivalPos="603.68" arrivalPosLat="0.00" arrivalSpeed="8.32" duration="217.40" routeLength="1991.73" waitingTime="11.30" waitingCount="2" stopTime="0.00" timeLoss="28.86" rerouteNo="1" devices="tripinfo_BalibagotoStaRosa.2 routing_BalibagotoStaRosa.2" vType="tricycle" speedFactor="1.00" vaporized=""/>