<?xml version="1.0" encoding="UTF-8"?>

<!-- generated on 2026-02-23 22:59:56 by Eclipse SUMO sumo Version 1.24.0
<sumoConfiguration xmlns:xsi="http://www.w3.org/2001/XMLSchema-instance" xsi:noNamespaceSchemaLocation="http://sumo.dlr.de/xsd/sumoConfiguration.xsd">

    <input>
        <net-file value="Balibago_traci/network/balibago_signalized.net.xml"/>
        <route-files value="Balibago_traci/demand/flows_normal_traffic.rou.xml"/>
        <additional-files value="Balibago_traci/additionals/balibago.poly.xml,Balibago_traci/ additionals/balibago.add.xml"/>
    </input>

    <output>
        <tripinfo-output value="Balibago_traci/output_DQN/SD_DQN_Train_Tripinfo_NORMAL2.xml"/>
        <statistic-output value="Balibago_traci/output_DQN/SD_DQN_Train_Stats_NORMAL.xml"/>
    </output>

    <time>
        <begin value="0"/>
        <end value="10800"/>
        <step-length value="0.1"/>
    </time>

    <processing>
        <lateral-resolution value="0.1"/>
        <collision.action value="none"/>
        <collision.check-junctions value="false"/>
        <collision.mingap-factor value="0"/>
    </processing>

    <report>
        <no-warnings value="true"/>
    </report>

    <traci_server>
        <remote-port value="8814"/>
    </traci_server>

    <gui_only>
        <delay value="0"/>
    </gui_only>

</sumoConfiguration>
-->

<tripinfos xmlns:xsi="http://www.w3.org/2001/XMLSchema-instance" xsi:noNamespaceSchemaLocation="http://sumo.dlr.de/xsd/tripinfo_file.xsd">
    <tripinfo id="BalibagotoNuvali.0" depart="9.20" departLane="777619905_1" departPos="5.10" departPosLat="0.00" departSpeed="0.00" departDelay="0.00" arrival="85.70" arrivalLane="145507700#3_1" arrivalPos="783.31" arrivalPosLat="-0.00" arrivalSpeed="27.75" duration="76.50" routeLength="1312.87" waitingTime="0.00" waitingCount="0" stopTime="0.00" timeLoss="23.38" rerouteNo="1" devices="tripinfo_BalibagotoNuvali.0 routing_BalibagotoNuvali.0" vType="bus" speedFactor="1.00" vaporized=""/>
    <personinfo id="JollibeetoPalengke.0" depart="0.00" type="ped" speedFactor="1.06" duration="118.50" waitingTime="0.00" timeLoss="11.67" traveltime="118.50">
        <walk depart="0.00" departPos="10.42" arrival="118.50" arrivalPos="27.04" duration="118.50" routeLength="157.27" timeLoss="11.67" maxSpeed="1.47" waitingTime="0.00"/>
    </personinfo>
    <personinfo id="PalengketoJollibee.0" depart="0.00" type="ped" speedFactor="0.94" duration="139.70" waitingTime="0.00" timeLoss="13.88" traveltime="139.70">
        <walk depart="0.00" departPos="25.00" arrival="139.70" arrivalPos="5.21" duration="139.70" routeLength="164.52" timeLoss="13.88" maxSpeed="1.31" waitingTime="0.00"/>
    </personinfo>
    <tripinfo id="BiñantoBalibago.0" depart="90.20" departLane="553887793#0_1" departPos="12.10" departPosLat="0.00" departSpeed="27.78" departDelay="0.00" arrival="152.90" arrivalLane="-32083237#0_1" arrivalPos="36.46" arrivalPosLat="0.00" arrivalSpeed="11.27" duration="62.70" routeLength="992.33" waitingTime="0.00" waitingCount="0" stopTime="0.00" timeLoss="23.26" rerouteNo="1" devices="tripinfo_BiñantoBalibago.0 routing_BiñantoBalibago.0" vType="bus" speedFactor="1.00" vaporized=""/>
    <personinfo id="JollibeetoSTI.0" depart="0.00" type="ped" speedFactor="1.18" duration="228.00" waitingTime="0.80" timeLoss="23.34" traveltime="228.00">
        <walk depart="0.00" departPos="10.42" arrival="228.00" arrivalPos="19.02" duration="228.00" routeLength="335.01" timeLoss="23.34" maxSpeed="1.64" waitingTime="0.80"/>
    </personinfo>
    <tripinfo id="CalambatoNuvali.0" depart="49.20" departLane="185930141#0_2" departPos="7.20" departPosLat="0.00" departSpeed="28.45" departDelay="0.00" arrival="235.90" arrivalLane="145507700#3_1" arrivalPos="783.31" arrivalPosLat="-0.00" arrivalSpeed="28.43" duration="186.70" routeLength="2330.77" waitingTime="69.70" waitingCount="1" stopTime="0.00" timeLoss="103.26" rerouteNo="1" devices="tripinfo_CalambatoNuvali.0 routing_CalambatoNuvali.0" vType="truck" speedFactor="1.02" vaporized=""/>
    <personinfo id="PalengketoJollibee.1" depart="120.00" type="ped" speedFactor="1.10" duration="119.50" waitingTime="0.00" timeLoss="12.12" traveltime="119.50">
        <walk depart="120.00" departPos="25.00" arrival="239.50" arrivalPos="5.21" duration="119.50" routeLength="164.52" timeLoss="12.12" maxSpeed="1.53" waitingTime="0.00"/>
    </personinfo>
    <personinfo id="JollibeetoPalengke.1" depart="120.00" type="ped" speedFactor="0.94" duration="133.30" waitingTime="0.00" timeLoss="12.62" traveltime="133.30">
        <walk depart="120.00" departPos="10.42" arrival="253.30" arrivalPos="27.04" duration="133.30" routeLength="157.27" timeLoss="12.62" maxSpeed="1.30" waitingTime="0.00"/>
    </personinfo>
    <personinfo id="PalengketoSTI.0" depart="0.00" type="ped" speedFactor="0.96" duration="308.40" waitingTime="1.00" timeLoss="32.41" traveltime="308.40">
        <walk depart="0.00" departPos="25.00" arrival="308.40" arrivalPos="19.02" duration="308.40" routeLength="369.14" timeLoss="32.41" maxSpeed="1.34" waitingTime="1.00"/>
    </personinfo>
    <tripinfo id="CalambatoBalibago.0" depart="194.30" departLane="185930141#0_2" departPos="2.30" departPosLat="0.00" departSpeed="24.40" departDelay="0.00" arrival="311.10" arrivalLane="89908334_1" arrivalPos="36.84" arrivalPosLat="0.00" arrivalSpeed="11.03" duration="116.80" routeLength="913.97" waitingTime="52.10" waitingCount="1" stopTime="0.00" timeLoss="69.53" rerouteNo="1" devices="tripinfo_CalambatoBalibago.0 routing_CalambatoBalibago.0" vType="tricycle" speedFactor="0.88" vaporized=""/>
    <personinfo id="STItoSakayan.0" depart="0.00" type="ped" speedFactor="0.95" duration="313.20" waitingTime="0.00" timeLoss="30.77" traveltime="313.20">
        <walk depart="0.00" departPos="25.00" arrival="313.20" arrivalPos="27.04" duration="313.20" routeLength="373.08" timeLoss="30.77" maxSpeed="1.32" waitingTime="0.00"/>
    </personinfo>
    <tripinfo id="CalambatoBalibago.1" depart="238.20" departLane="185930141#0_2" departPos="2.30" departPosLat="0.00" departSpeed="26.36" departDelay="0.00" arrival="313.80" arrivalLane="89908334_1" arrivalPos="36.84" arrivalPosLat="0.00" arrivalSpeed="11.12" duration="75.60" routeLength="913.97" waitingTime="6.10" waitingCount="1" stopTime="0.00" timeLoss="31.90" rerouteNo="1" devices="tripinfo_CalambatoBalibago.1 routing_CalambatoBalibago.1" vType="tricycle" speedFactor="0.95" vaporized=""/>
    <tripinfo id="StaRosatoBalibago.0" depart="141.60" departLane="92878383#0_1" departPos="12.10" departPosLat="0.00" departSpeed="8.33" departDelay="0.00" arrival="333.60" arrivalLane="-32083237#0_1" arrivalPos="36.46" arrivalPosLat="0.00" arrivalSpeed="11.34" duration="192.00" routeLength="1354.46" waitingTime="24.00" waitingCount="2" stopTime="0.00" timeLoss="59.12" rerouteNo="1" devices="tripinfo_StaRosatoBalibago.0 routing_StaRosatoBalibago.0" vType="bus" speedFactor="1.00" vaporized=""/>
    <tripinfo id="BiñantoStaRosa.0" depart="24.20" departLane="553887793#0_2" departPos="5.10" departPosLat="0.00" departSpeed="26.79" departDelay="0.00" arrival="344.70" arrivalLane="-92878383#0_1" arrivalPos="603.68" arrivalPosLat="-0.00" arrivalSpeed="7.99" duration="320.50" routeLength="1785.95" waitingTime="149.80" waitingCount="1" stopTime="0.00" timeLoss="160.60" rerouteNo="1" devices="tripinfo_BiñantoStaRosa.0 routing_BiñantoStaRosa.0" vType="car" speedFactor="0.96" vaporized=""/>
    <personinfo id="JollibeetoSTI.1" depart="120.00" type="ped" speedFactor="1.15" duration="233.70" waitingTime="1.00" timeLoss="24.75" traveltime="233.70">
        <walk depart="120.00" departPos="10.42" arrival="353.70" arrivalPos="19.02" duration="233.70" routeLength="335.01" timeLoss="24.75" maxSpeed="1.60" waitingTime="1.00"/>
    </personinfo>
    <tripinfo id="StaRosatoCalamba.1" depart="93.90" departLane="92878383#0_1" departPos="5.10" departPosLat="0.00" departSpeed="7.91" departDelay="0.00" arrival="355.60" arrivalLane="-185930141#0_1" arrivalPos="428.88" arrivalPosLat="-0.00" arrivalSpeed="26.27" duration="261.70" routeLength="1855.46" waitingTime="78.20" waitingCount="2" stopTime="0.00" timeLoss="104.09" rerouteNo="1" devices="tripinfo_StaRosatoCalamba.1 routing_StaRosatoCalamba.1" vType="car" speedFactor="0.95" vaporized=""/>
    <tripinfo id="StaRosatoCalamba.0" depart="77.50" departLane="92878383#0_1" departPos="7.20" departPosLat="0.00" departSpeed="7.76" departDelay="0.00" arrival="362.80" arrivalLane="-185930141#0_1" arrivalPos="428.88" arrivalPosLat="-0.00" arrivalSpeed="25.87" duration="285.30" routeLength="1853.36" waitingTime="100.10" waitingCount="2" stopTime="0.00" timeLoss="124.90" rerouteNo="1" devices="tripinfo_StaRosatoCalamba.0 routing_StaRosatoCalamba.0" vType="truck" speedFactor="0.93" vaporized=""/>
    <personinfo id="JollibeetoPalengke.2" depart="240.00" type="ped" speedFactor="1.01" duration="124.80" waitingTime="0.00" timeLoss="12.73" traveltime="124.80">
        <walk depart="240.00" departPos="10.42" arrival="364.80" arrivalPos="27.04" duration="124.80" routeLength="157.27" timeLoss="12.73" maxSpeed="1.40" waitingTime="0.00"/>
    </personinfo>
    <personinfo id="PalengketoJollibee.2" depart="240.00" type="ped" speedFactor="1.03" duration="127.30" waitingTime="0.00" timeLoss="12.45" traveltime="127.30">
        <walk depart="240.00" departPos="25.00" arrival="367.30" arrivalPos="5.21" duration="127.30" routeLength="164.52" timeLoss="12.45" maxSpeed="1.43" waitingTime="0.00"/>
    </personinfo>
    <tripinfo id="StaRosatoNuvali.0" depart="193.30" departLane="92878383#0_1" departPos="8.10" departPosLat="0.00" departSpeed="8.33" departDelay="0.00" arrival="381.30" arrivalLane="145507700#3_1" arrivalPos="783.31" arrivalPosLat="0.00" arrivalSpeed="27.73" duration="188.00" routeLength="2442.86" waitingTime="0.00" waitingCount="0" stopTime="0.00" timeLoss="18.22" rerouteNo="1" devices="tripinfo_StaRosatoNuvali.0 routing_StaRosatoNuvali.0" vType="jeep" speedFactor="1.00" vaporized=""/>
    <personinfo id="STItoSakayan.1" depart="120.00" type="ped" speedFactor="1.01" duration="294.50" waitingTime="0.00" timeLoss="29.30" traveltime="294.50">
        <walk depart="120.00" departPos="25.00" arrival="414.50" arrivalPos="27.04" duration="294.50" routeLength="373.08" timeLoss="29.30" maxSpeed="1.41" waitingTime="0.00"/>
    </personinfo>
    <personinfo id="PalengketoSTI.1" depart="120.00" type="ped" speedFactor="1.00" duration="295.00" waitingTime="1.20" timeLoss="30.44" traveltime="295.00">
        <walk depart="120.00" departPos="25.00" arrival="415.00" arrivalPos="19.02" duration="295.00" routeLength="369.14" timeLoss="30.44" maxSpeed="1.40" waitingTime="1.20"/>
    </personinfo>
    <personinfo id="JollibeetoTarget.0" depart="0.00" type="ped" speedFactor="1.08" duration="415.60" waitingTime="2.20" timeLoss="46.42" traveltime="415.60">
        <walk depart="0.00" departPos="10.42" arrival="415.60" arrivalPos="16.04" duration="415.60" routeLength="555.05" timeLoss="46.42" maxSpeed="1.50" waitingTime="2.20"/>
    </personinfo>
    <personinfo id="PalengketoTarget.0" depart="0.00" type="ped" speedFactor="1.10" duration="429.70" waitingTime="1.40" timeLoss="43.99" traveltime="429.70">
        <walk depart="0.00" departPos="25.00" arrival="429.70" arrivalPos="16.04" duration="429.70" routeLength="589.17" timeLoss="43.99" maxSpeed="1.53" waitingTime="1.40"/>
    </personinfo>
    <personinfo id="JollibeetoPalengke.3" depart="360.00" type="ped" speedFactor="1.08" duration="116.20" waitingTime="0.00" timeLoss="11.61" traveltime="116.20">
        <walk depart="360.00" departPos="10.42" arrival="476.20" arrivalPos="27.04" duration="116.20" routeLength="157.27" timeLoss="11.61" maxSpeed="1.50" waitingTime="0.00"/>
    </personinfo>
    <tripinfo id="NuvalitoBiñan.0" depart="405.00" departLane="-145507700#3_1" departPos="2.30" departPosLat="0.00" departSpeed="29.51" departDelay="0.00" arrival="481.90" arrivalLane="-553887793#0_2" arrivalPos="201.31" arrivalPosLat="0.00" arrivalSpeed="29.37" duration="76.90" routeLength="2096.19" waitingTime="0.00" waitingCount="0" stopTime="0.00" timeLoss="4.58" rerouteNo="1" devices="tripinfo_NuvalitoBiñan.0 routing_NuvalitoBiñan.0" vType="motorcycle" speedFactor="1.06" vaporized=""/>
    <tripinfo id="CalambatoBalibago.2" depart="267.10" departLane="185930141#0_2" departPos="8.10" departPosLat="0.00" departSpeed="27.78" departDelay="0.00" arrival="487.90" arrivalLane="89908334_1" arrivalPos="36.84" arrivalPosLat="0.00" arrivalSpeed="9.09" duration="220.80" routeLength="908.17" waitingTime="150.70" waitingCount="1" stopTime="0.00" timeLoss="179.62" rerouteNo="1" devices="tripinfo_CalambatoBalibago.2 routing_CalambatoBalibago.2" vType="jeep" speedFactor="1.00" vaporized=""/>
    <personinfo id="PalengketoJollibee.3" depart="360.00" type="ped" speedFactor="1.02" duration="129.00" waitingTime="0.30" timeLoss="13.25" traveltime="129.00">
        <walk depart="360.00" departPos="25.00" arrival="489.00" arrivalPos="5.21" duration="129.00" routeLength="164.52" timeLoss="13.25" maxSpeed="1.42" waitingTime="0.30"/>
    </personinfo>
    <tripinfo id="CalambatoBalibago.3" depart="395.50" departLane="185930141#0_2" departPos="2.30" departPosLat="0.00" departSpeed="26.42" departDelay="0.00" arrival="490.90" arrivalLane="89908334_1" arrivalPos="36.84" arrivalPosLat="0.00" arrivalSpeed="10.95" duration="95.40" routeLength="913.97" waitingTime="19.80" waitingCount="1" stopTime="0.00" timeLoss="51.77" rerouteNo="1" devices="tripinfo_CalambatoBalibago.3 routing_CalambatoBalibago.3" vType="tricycle" speedFactor="0.95" vaporized=""/>
    <personinfo id="TargettoSakayan.0" depart="0.00" type="ped" speedFactor="0.97" duration="491.00" waitingTime="0.00" timeLoss="49.13" traveltime="491.00">
        <walk depart="0.00" departPos="25.00" arrival="491.00" arrivalPos="27.04" duration="491.00" routeLength="596.09" timeLoss="49.13" maxSpeed="1.35" waitingTime="0.00"/>
    </personinfo>
    <tripinfo id="CalambatoStaRosa.0" depart="289.50" departLane="185930141#0_1" departPos="5.10" departPosLat="0.00" departSpeed="22.64" departDelay="0.00" arrival="492.00" arrivalLane="-92878383#0_1" arrivalPos="603.68" arrivalPosLat="0.00" arrivalSpeed="6.76" duration="202.50" routeLength="1808.59" waitingTime="5.90" waitingCount="1" stopTime="0.00" timeLoss="14.97" rerouteNo="1" devices="tripinfo_CalambatoStaRosa.0 routing_CalambatoStaRosa.0" vType="car" speedFactor="0.82" vaporized=""/>
    <tripinfo id="NuvalitoCalamba.0" depart="121.00" departLane="-145507700#3_1" departPos="8.10" departPosLat="0.00" departSpeed="27.78" departDelay="0.00" arrival="493.30" arrivalLane="-185930141#0_1" arrivalPos="428.88" arrivalPosLat="-0.00" arrivalSpeed="27.77" duration="372.30" routeLength="2318.76" waitingTime="235.50" waitingCount="2" stopTime="0.00" timeLoss="287.68" rerouteNo="1" devices="tripinfo_NuvalitoCalamba.0 routing_NuvalitoCalamba.0" vType="jeep" speedFactor="1.00" vaporized=""/>
    <tripinfo id="StaRosatoCalamba.2" depart="216.90" departLane="92878383#0_1" departPos="8.10" departPosLat="0.00" departSpeed="8.33" departDelay="0.00" arrival="493.30" arrivalLane="-185930141#0_2" arrivalPos="428.88" arrivalPosLat="0.00" arrivalSpeed="27.74" duration="276.40" routeLength="1852.46" waitingTime="96.80" waitingCount="1" stopTime="0.00" timeLoss="127.01" rerouteNo="1" devices="tripinfo_StaRosatoCalamba.2 routing_StaRosatoCalamba.2" vType="jeep" speedFactor="1.00" vaporized=""/>
    <tripinfo id="CalambatoBalibago.4" depart="410.80" departLane="185930141#0_2" departPos="8.10" departPosLat="0.00" departSpeed="27.78" departDelay="0.00" arrival="494.70" arrivalLane="89908334_1" arrivalPos="36.84" arrivalPosLat="0.00" arrivalSpeed="8.79" duration="83.90" routeLength="908.17" waitingTime="4.30" waitingCount="1" stopTime="0.00" timeLoss="42.60" rerouteNo="1" devices="tripinfo_CalambatoBalibago.4 routing_CalambatoBalibago.4" vType="jeep" speedFactor="1.00" vaporized=""/>
    <tripinfo id="NuvalitoStaRosa.0" depart="128.70" departLane="-145507700#3_2" departPos="5.10" departPosLat="0.00" departSpeed="26.12" departDelay="0.00" arrival="499.60" arrivalLane="-92878383#0_1" arrivalPos="603.68" arrivalPosLat="-0.00" arrivalSpeed="7.76" duration="370.90" routeLength="2600.04" waitingTime="149.80" waitingCount="1" stopTime="0.00" timeLoss="174.48" rerouteNo="1" devices="tripinfo_NuvalitoStaRosa.0 routing_NuvalitoStaRosa.0" vType="car" speedFactor="0.94" vaporized=""/>
    <personinfo id="JollibeetoSTI.2" depart="240.00" type="ped" speedFactor="1.01" duration="267.50" waitingTime="1.10" timeLoss="27.54" traveltime="267.50">
        <walk depart="240.00" departPos="10.42" arrival="507.50" arrivalPos="19.02" duration="267.50" routeLength="335.01" timeLoss="27.54" maxSpeed="1.40" waitingTime="1.10"/>
    </personinfo>
    <personinfo id="PalengketoSTI.2" depart="240.00" type="ped" speedFactor="1.07" duration="278.90" waitingTime="1.60" timeLoss="30.83" traveltime="278.90">
        <walk depart="240.00" departPos="25.00" arrival="518.90" arrivalPos="19.02" duration="278.90" routeLength="369.14" timeLoss="30.83" maxSpeed="1.49" waitingTime="1.60"/>
    </personinfo>
    <personinfo id="JollibeetoTarget.1" depart="120.00" type="ped" speedFactor="1.12" duration="399.00" waitingTime="1.40" timeLoss="41.96" traveltime="399.00">
        <walk depart="120.00" departPos="10.42" arrival="519.00" arrivalPos="16.04" duration="399.00" routeLength="555.05" timeLoss="41.96" maxSpeed="1.55" waitingTime="1.40"/>
    </personinfo>
    <tripinfo id="BalibagotoBiñan.0" depart="387.10" departLane="145507698_1" departPos="2.30" departPosLat="0.00" departSpeed="9.75" departDelay="0.00" arrival="519.90" arrivalLane="-553887793#0_1" arrivalPos="201.31" arrivalPosLat="0.00" arrivalSpeed="24.76" duration="132.80" routeLength="1690.81" waitingTime="3.30" waitingCount="1" stopTime="0.00" timeLoss="31.34" rerouteNo="1" devices="tripinfo_BalibagotoBiñan.0 routing_BalibagotoBiñan.0" vType="tricycle" speedFactor="0.89" vaporized=""/>
    <tripinfo id="CalambatoBiñan.0" depart="457.90" departLane="185930141#0_1" departPos="5.10" departPosLat="0.00" departSpeed="23.93" departDelay="0.00" arrival="525.90" arrivalLane="-553887793#0_1" arrivalPos="201.31" arrivalPosLat="0.00" arrivalSpeed="23.91" duration="68.00" routeLength="1507.67" waitingTime="0.00" waitingCount="0" stopTime="0.00" timeLoss="4.97" rerouteNo="1" devices="tripinfo_CalambatoBiñan.0 routing_CalambatoBiñan.0" vType="car" speedFactor="0.86" vaporized=""/>
    <personinfo id="STItoSakayan.2" depart="240.00" type="ped" speedFactor="0.97" duration="314.30" waitingTime="6.20" timeLoss="37.35" traveltime="314.30">
        <walk depart="240.00" departPos="25.00" arrival="554.30" arrivalPos="27.04" duration="314.30" routeLength="373.08" timeLoss="37.35" maxSpeed="1.35" waitingTime="6.20"/>
    </personinfo>
    <tripinfo id="CalambatoNuvali.1" depart="272.50" departLane="185930141#0_2" departPos="7.20" departPosLat="0.00" departSpeed="28.12" departDelay="0.00" arrival="576.60" arrivalLane="145507700#3_1" arrivalPos="783.31" arrivalPosLat="-0.00" arrivalSpeed="28.11" duration="304.10" routeLength="2330.77" waitingTime="154.40" waitingCount="5" stopTime="0.00" timeLoss="219.66" rerouteNo="1" devices="tripinfo_CalambatoNuvali.1 routing_CalambatoNuvali.1" vType="truck" speedFactor="1.01" vaporized=""/>
    <tripinfo id="CalambatoNuvali.2" depart="346.20" departLane="185930141#0_2" departPos="7.20" departPosLat="0.00" departSpeed="27.38" departDelay="0.00" arrival="579.50" arrivalLane="145507700#3_1" arrivalPos="783.31" arrivalPosLat="-0.00" arrivalSpeed="27.31" duration="233.30" routeLength="2330.77" waitingTime="75.60" waitingCount="4" stopTime="0.00" timeLoss="146.53" rerouteNo="1" devices="tripinfo_CalambatoNuvali.2 routing_CalambatoNuvali.2" vType="truck" speedFactor="0.99" vaporized=""/>
    <personinfo id="PalengketoTarget.1" depart="120.00" type="ped" speedFactor="1.03" duration="460.90" waitingTime="1.50" timeLoss="47.53" traveltime="460.90">
        <walk depart="120.00" departPos="25.00" arrival="580.90" arrivalPos="16.04" duration="460.90" routeLength="589.17" timeLoss="47.53" maxSpeed="1.43" waitingTime="1.50"/>
    </personinfo>
    <personinfo id="JollibeetoSTI.3" depart="360.00" type="ped" speedFactor="1.17" duration="236.40" waitingTime="7.60" timeLoss="30.55" traveltime="236.40">
        <walk depart="360.00" departPos="10.42" arrival="596.40" arrivalPos="19.02" duration="236.40" routeLength="335.01" timeLoss="30.55" maxSpeed="1.63" waitingTime="7.60"/>
    </personinfo>
    <personinfo id="JollibeetoPalengke.4" depart="480.00" type="ped" speedFactor="1.03" duration="122.20" waitingTime="0.00" timeLoss="12.29" traveltime="122.20">
        <walk depart="480.00" departPos="10.42" arrival="602.20" arrivalPos="27.04" duration="122.20" routeLength="157.27" timeLoss="12.29" maxSpeed="1.43" waitingTime="0.00"/>
    </personinfo>
    <personinfo id="PalengketoJollibee.4" depart="480.00" type="ped" speedFactor="1.06" duration="123.90" waitingTime="0.00" timeLoss="12.24" traveltime="123.90">
        <walk depart="480.00" departPos="25.00" arrival="603.90" arrivalPos="5.21" duration="123.90" routeLength="164.52" timeLoss="12.24" maxSpeed="1.47" waitingTime="0.00"/>
    </personinfo>
    <tripinfo id="CalambatoBiñan.1" depart="480.60" departLane="185930141#0_1" departPos="8.10" departPosLat="0.00" departSpeed="27.78" departDelay="0.00" arrival="609.80" arrivalLane="-553887793#0_1" arrivalPos="201.31" arrivalPosLat="0.00" arrivalSpeed="27.74" duration="129.20" routeLength="1504.67" waitingTime="47.70" waitingCount="1" stopTime="0.00" timeLoss="74.99" rerouteNo="1" devices="tripinfo_CalambatoBiñan.1 routing_CalambatoBiñan.1" vType="jeep" speedFactor="1.00" vaporized=""/>
    <personinfo id="PuregoldtoSakayan.0" depart="0.00" type="ped" speedFactor="1.07" duration="619.50" waitingTime="129.60" timeLoss="178.88" traveltime="619.50">
        <walk depart="0.00" departPos="9.99" arrival="619.50" arrivalPos="27.04" duration="619.50" routeLength="654.93" timeLoss="178.88" maxSpeed="1.49" waitingTime="129.60"/>
    </personinfo>
    <tripinfo id="BiñantoCalamba.0" depart="348.40" departLane="553887793#0_1" departPos="5.10" departPosLat="0.00" departSpeed="27.11" departDelay="0.00" arrival="620.40" arrivalLane="-185930141#0_1" arrivalPos="428.88" arrivalPosLat="0.00" arrivalSpeed="27.06" duration="272.00" routeLength="1507.67" waitingTime="192.60" waitingCount="2" stopTime="0.00" timeLoss="216.35" rerouteNo="1" devices="tripinfo_BiñantoCalamba.0 routing_BiñantoCalamba.0" vType="car" speedFactor="0.98" vaporized=""/>
    <personinfo id="PalengketoPuregold.0" depart="0.00" type="ped" speedFactor="1.10" duration="652.00" waitingTime="172.10" timeLoss="220.60" traveltime="652.00">
        <walk depart="0.00" departPos="25.00" arrival="652.00" arrivalPos="5.00" duration="652.00" routeLength="661.97" timeLoss="220.60" maxSpeed="1.53" waitingTime="172.10"/>
    </personinfo>
    <personinfo id="STItoSakayan.3" depart="360.00" type="ped" speedFactor="0.99" duration="301.50" waitingTime="0.00" timeLoss="30.09" traveltime="301.50">
        <walk depart="360.00" departPos="25.00" arrival="661.50" arrivalPos="27.04" duration="301.50" routeLength="373.08" timeLoss="30.09" maxSpeed="1.37" waitingTime="0.00"/>
    </personinfo>
    <personinfo id="JollibeetoPureGold.0" depart="0.00" type="ped" speedFactor="1.02" duration="666.30" waitingTime="172.20" timeLoss="221.68" traveltime="666.30">
        <walk depart="0.00" departPos="10.42" arrival="666.30" arrivalPos="5.00" duration="666.30" routeLength="627.84" timeLoss="221.68" maxSpeed="1.41" waitingTime="172.20"/>
    </personinfo>
    <personinfo id="PalengketoPuregold.1" depart="120.00" type="ped" speedFactor="1.04" duration="547.00" waitingTime="34.20" timeLoss="87.17" traveltime="547.00">
        <walk depart="120.00" departPos="25.00" arrival="667.00" arrivalPos="5.00" duration="547.00" routeLength="661.97" timeLoss="87.17" maxSpeed="1.44" waitingTime="34.20"/>
    </personinfo>
    <tripinfo id="BiñantoStaRosa.1" depart="347.60" departLane="553887793#0_2" departPos="8.10" departPosLat="0.00" departSpeed="27.78" departDelay="0.00" arrival="670.00" arrivalLane="-92878383#0_1" arrivalPos="603.68" arrivalPosLat="-0.00" arrivalSpeed="8.30" duration="322.40" routeLength="1782.95" waitingTime="152.40" waitingCount="1" stopTime="0.00" timeLoss="168.24" rerouteNo="1" devices="tripinfo_BiñantoStaRosa.1 routing_BiñantoStaRosa.1" vType="jeep" speedFactor="1.00" vaporized=""/>
    <personinfo id="TargettoSakayan.1" depart="120.00" type="ped" speedFactor="0.87" duration="550.60" waitingTime="0.00" timeLoss="55.40" traveltime="550.60">
        <walk depart="120.00" departPos="25.00" arrival="670.60" arrivalPos="27.04" duration="550.60" routeLength="596.09" timeLoss="55.40" maxSpeed="1.20" waitingTime="0.00"/>
    </personinfo>
    <tripinfo id="StaRosatoBalibago.1" depart="313.70" departLane="92878383#0_1" departPos="8.10" departPosLat="0.00" departSpeed="8.33" departDelay="0.00" arrival="670.80" arrivalLane="-32083237#0_1" arrivalPos="36.46" arrivalPosLat="0.00" arrivalSpeed="11.46" duration="357.10" routeLength="1358.46" waitingTime="190.90" waitingCount="2" stopTime="0.00" timeLoss="223.72" rerouteNo="1" devices="tripinfo_StaRosatoBalibago.1 routing_StaRosatoBalibago.1" vType="jeep" speedFactor="1.00" vaporized=""/>
    <tripinfo id="StaRosatoBalibago.2" depart="444.60" departLane="92878383#0_1" departPos="2.30" departPosLat="0.00" departSpeed="7.55" departDelay="0.00" arrival="676.20" arrivalLane="-32083237#0_1" arrivalPos="36.46" arrivalPosLat="0.00" arrivalSpeed="15.64" duration="231.60" routeLength="1364.26" waitingTime="45.50" waitingCount="4" stopTime="0.00" timeLoss="83.64" rerouteNo="1" devices="tripinfo_StaRosatoBalibago.2 routing_StaRosatoBalibago.2" vType="tricycle" speedFactor="0.91" vaporized=""/>
    <tripinfo id="StaRosatoBalibago.3" depart="527.40" departLane="92878383#0_1" departPos="2.30" departPosLat="0.00" departSpeed="8.42" departDelay="0.00" arrival="678.10" arrivalLane="-32083237#0_1" arrivalPos="36.46" arrivalPosLat="0.00" arrivalSpeed="14.98" duration="150.70" routeLength="1364.26" waitingTime="0.00" waitingCount="0" stopTime="0.00" timeLoss="18.18" rerouteNo="1" devices="tripinfo_StaRosatoBalibago.3 routing_StaRosatoBalibago.3" vType="tricycle" speedFactor="1.01" vaporized=""/>
    <personinfo id="PalengketoSTI.3" depart="360.00" type="ped" speedFactor="0.93" duration="319.10" waitingTime="1.10" timeLoss="32.39" traveltime="319.10">
        <walk depart="360.00" departPos="25.00" arrival="679.10" arrivalPos="19.02" duration="319.10" routeLength="369.14" timeLoss="32.39" maxSpeed="1.29" waitingTime="1.10"/>
    </personinfo>
    <personinfo id="JollibeetoTarget.2" depart="240.00" type="ped" speedFactor="1.02" duration="441.70" waitingTime="2.40" timeLoss="48.28" traveltime="441.70">
        <walk depart="240.00" departPos="10.42" arrival="681.70" arrivalPos="16.04" duration="441.70" routeLength="555.05" timeLoss="48.28" maxSpeed="1.41" waitingTime="2.40"/>
    </personinfo>
    <personinfo id="JollibeetoPureGold.1" depart="120.00" type="ped" speedFactor="0.89" duration="571.10" waitingTime="8.10" timeLoss="64.21" traveltime="571.10">
        <walk depart="120.00" departPos="10.42" arrival="691.10" arrivalPos="5.00" duration="571.10" routeLength="627.84" timeLoss="64.21" maxSpeed="1.24" waitingTime="8.10"/>
    </personinfo>
    <personinfo id="TargettoSakayan.2" depart="240.00" type="ped" speedFactor="1.05" duration="456.10" waitingTime="2.60" timeLoss="47.86" traveltime="456.10">
        <walk depart="240.00" departPos="25.00" arrival="696.10" arrivalPos="27.04" duration="456.10" routeLength="596.09" timeLoss="47.86" maxSpeed="1.46" waitingTime="2.60"/>
    </personinfo>
    <tripinfo id="StaRosatoNuvali.2" depart="511.60" departLane="92878383#0_1" departPos="5.10" departPosLat="0.00" departSpeed="9.32" departDelay="0.00" arrival="699.40" arrivalLane="145507700#3_2" arrivalPos="783.31" arrivalPosLat="0.00" arrivalSpeed="31.03" duration="187.80" routeLength="2445.86" waitingTime="0.00" waitingCount="0" stopTime="0.00" timeLoss="35.69" rerouteNo="1" devices="tripinfo_StaRosatoNuvali.2 routing_StaRosatoNuvali.2" vType="car" speedFactor="1.12" vaporized=""/>
    <personinfo id="PalengketoTarget.2" depart="240.00" type="ped" speedFactor="1.03" duration="461.20" waitingTime="1.90" timeLoss="49.23" traveltime="461.20">
        <walk depart="240.00" departPos="25.00" arrival="701.20" arrivalPos="16.04" duration="461.20" routeLength="589.17" timeLoss="49.23" maxSpeed="1.43" waitingTime="1.90"/>
    </personinfo>
    <tripinfo id="StaRosatoNuvali.1" depart="481.30" departLane="92878383#0_1" departPos="7.20" departPosLat="0.00" departSpeed="8.30" departDelay="0.00" arrival="703.20" arrivalLane="145507700#3_1" arrivalPos="783.31" arrivalPosLat="0.00" arrivalSpeed="27.64" duration="221.90" routeLength="2443.76" waitingTime="20.70" waitingCount="2" stopTime="0.00" timeLoss="51.41" rerouteNo="1" devices="tripinfo_StaRosatoNuvali.1 routing_StaRosatoNuvali.1" vType="truck" speedFactor="1.00" vaporized=""/>
    <personinfo id="PalengketoJollibee.5" depart="600.00" type="ped" speedFactor="1.15" duration="114.00" waitingTime="0.00" timeLoss="11.24" traveltime="114.00">
        <walk depart="600.00" departPos="25.00" arrival="714.00" arrivalPos="5.21" duration="114.00" routeLength="164.52" timeLoss="11.24" maxSpeed="1.60" waitingTime="0.00"/>
    </personinfo>