<?xml version="1.0" encoding="UTF-8"?>

<!-- generated on 2026-02-23 22:40:46 by Eclipse SUMO sumo Version 1.24.0
<sumoConfiguration xmlns:xsi="http://www.w3.org/2001/XMLSchema-instance" xsi:noNamespaceSchemaLocation="http://sumo.dlr.de/xsd/sumoConfiguration.xsd">

    <input>
        <net-file value="Balibago_traci/network/balibago_signalized.net.xml"/>
        <route-files value="Balibago_traci/demand/flows_jam_traffic.rou.xml"/>
        <additional-files value="Balibago_traci/additionals/balibago.poly.xml,Balibago_traci/ additionals/balibago.add.xml"/>
    </input>

    <output>
        <tripinfo-output value="Balibago_traci/output_DQN/SD_DQN_Train_Tripinfo_JAM.xml"/>
        <statistic-output value="Balibago_traci/output_DQN/SD_DQN_Train_Stats_JAM.xml"/>
    </output>

    <time>
        <begin value="0"/>
        <end value="10800"/>
        <step-length value="0.1"/>
    </time>

    <processing>
        <lateral-resolution value="0.1"/>
        <collision.action value="none"/>
        <collision.check-junctions value="false"/>
        <collision.mingap-factor value="0"/>
    </processing>

    <report>
        <no-warnings value="true"/>
    </report>

    <traci_server>
        <remote-port value="8814"/>
    </traci_server>

    <gui_only>
        <delay value="0"/>
    </gui_only>

</sumoConfiguration>
-->

<tripinfos xmlns:xsi="http://www.w3.org/2001/XMLSchema-instance" xsi:noNamespaceSchemaLocation="http://sumo.dlr.de/xsd/tripinfo_file.xsd">
    <tripinfo id="BalibagotoNuvali.0" depart="9.20" departLane="777619905_1" departPos="5.10" departPosLat="0.00" departSpeed="0.00" departDelay="0.00" arrival="88.40" arrivalLane="145507700#3_1" arrivalPos="783.31" arrivalPosLat="-0.00" arrivalSpeed="27.76" duration="79.20" routeLength="1312.87" waitingTime="0.00" waitingCount="0" stopTime="0.00" timeLoss="26.15" rerouteNo="1" devices="tripinfo_BalibagotoNuvali.0 routing_BalibagotoNuvali.0" vType="bus" speedFactor="1.00" vaporized=""/>
    <tripinfo id="NuvalitoBiñan.0" depart="0.70" departLane="-145507700#3_1" departPos="2.30" departPosLat="0.00" departSpeed="25.95" departDelay="0.00" arrival="91.10" arrivalLane="-553887793#0_2" arrivalPos="201.31" arrivalPosLat="0.00" arrivalSpeed="25.85" duration="90.40" routeLength="2096.19" waitingTime="0.00" waitingCount="0" stopTime="0.00" timeLoss="8.22" rerouteNo="1" devices="tripinfo_NuvalitoBiñan.0 routing_NuvalitoBiñan.0" vType="tricycle" speedFactor="0.93" vaporized=""/>
    <personinfo id="JollibeetoPalengke.0" depart="0.00" type="ped" speedFactor="1.06" duration="118.90" waitingTime="0.00" timeLoss="12.07" traveltime="118.90">
        <walk depart="0.00" departPos="10.42" arrival="118.90" arrivalPos="27.04" duration="118.90" routeLength="157.27" timeLoss="12.07" maxSpeed="1.47" waitingTime="0.00"/>
    </personinfo>
    <personinfo id="PalengketoJollibee.0" depart="0.00" type="ped" speedFactor="1.07" duration="123.10" waitingTime="0.00" timeLoss="12.41" traveltime="123.10">
        <walk depart="0.00" departPos="25.00" arrival="123.10" arrivalPos="5.21" duration="123.10" routeLength="164.52" timeLoss="12.41" maxSpeed="1.49" waitingTime="0.00"/>
    </personinfo>
    <tripinfo id="NuvalitoBalibago.0" depart="8.30" departLane="-145507700#3_1" departPos="2.30" departPosLat="0.00" departSpeed="32.64" departDelay="0.00" arrival="129.40" arrivalLane="32083201#1_1" arrivalPos="58.53" arrivalPosLat="0.00" arrivalSpeed="16.22" duration="121.10" routeLength="2060.89" waitingTime="0.00" waitingCount="0" stopTime="0.00" timeLoss="30.81" rerouteNo="1" devices="tripinfo_NuvalitoBalibago.0 routing_NuvalitoBalibago.0" vType="tricycle" speedFactor="1.17" vaporized=""/>
    <tripinfo id="NuvalitoCalamba.0" depart="45.30" departLane="-145507700#3_1" departPos="5.10" departPosLat="0.00" departSpeed="27.23" departDelay="0.00" arrival="147.60" arrivalLane="-185930141#0_2" arrivalPos="428.88" arrivalPosLat="0.00" arrivalSpeed="27.21" duration="102.30" routeLength="2321.76" waitingTime="0.00" waitingCount="0" stopTime="0.00" timeLoss="15.82" rerouteNo="1" devices="tripinfo_NuvalitoCalamba.0 routing_NuvalitoCalamba.0" vType="car" speedFactor="0.98" vaporized=""/>
    <tripinfo id="BalibagotoCalamba.0" depart="40.60" departLane="145507698_1" departPos="2.30" departPosLat="0.00" departSpeed="0.63" departDelay="0.20" arrival="153.40" arrivalLane="-185930141#0_2" arrivalPos="428.88" arrivalPosLat="0.00" arrivalSpeed="27.98" duration="112.80" routeLength="1531.99" waitingTime="8.30" waitingCount="1" stopTime="0.00" timeLoss="28.85" rerouteNo="1" devices="tripinfo_BalibagotoCalamba.0 routing_BalibagotoCalamba.0" vType="tricycle" speedFactor="1.01" vaporized=""/>
    <tripinfo id="CalambatoBiñan.0" depart="32.70" departLane="185930141#0_1" departPos="8.10" departPosLat="0.00" departSpeed="27.78" departDelay="0.00" arrival="188.50" arrivalLane="-553887793#0_1" arrivalPos="201.31" arrivalPosLat="0.00" arrivalSpeed="27.77" duration="155.80" routeLength="1504.67" waitingTime="75.50" waitingCount="1" stopTime="0.00" timeLoss="101.62" rerouteNo="1" devices="tripinfo_CalambatoBiñan.0 routing_CalambatoBiñan.0" vType="jeep" speedFactor="1.00" vaporized=""/>
    <personinfo id="JollibeetoPalengke.1" depart="48.00" type="ped" speedFactor="0.94" duration="140.60" waitingTime="6.30" timeLoss="19.92" traveltime="140.60">
        <walk depart="48.00" departPos="10.42" arrival="188.60" arrivalPos="27.04" duration="140.60" routeLength="157.27" timeLoss="19.92" maxSpeed="1.30" waitingTime="6.30"/>
    </personinfo>
    <personinfo id="PalengketoJollibee.1" depart="48.00" type="ped" speedFactor="0.94" duration="140.60" waitingTime="0.00" timeLoss="14.21" traveltime="140.60">
        <walk depart="48.00" departPos="25.00" arrival="188.60" arrivalPos="5.21" duration="140.60" routeLength="164.52" timeLoss="14.21" maxSpeed="1.30" waitingTime="0.00"/>
    </personinfo>
    <tripinfo id="BalibagotoBiñan.0" depart="37.20" departLane="145507698_1" departPos="7.55" departPosLat="0.00" departSpeed="0.00" departDelay="0.00" arrival="188.80" arrivalLane="-553887793#0_2" arrivalPos="201.31" arrivalPosLat="0.00" arrivalSpeed="27.72" duration="151.60" routeLength="1682.41" waitingTime="1.60" waitingCount="1" stopTime="0.00" timeLoss="61.48" rerouteNo="1" devices="tripinfo_BalibagotoBiñan.0 routing_BalibagotoBiñan.0" vType="jeep" speedFactor="1.00" vaporized=""/>
    <tripinfo id="CalambatoNuvali.0" depart="49.20" departLane="185930141#0_2" departPos="5.10" departPosLat="0.00" departSpeed="26.95" departDelay="0.00" arrival="218.30" arrivalLane="145507700#3_1" arrivalPos="783.31" arrivalPosLat="-0.00" arrivalSpeed="26.83" duration="169.10" routeLength="2332.87" waitingTime="60.70" waitingCount="1" stopTime="0.00" timeLoss="80.88" rerouteNo="1" devices="tripinfo_CalambatoNuvali.0 routing_CalambatoNuvali.0" vType="car" speedFactor="0.97" vaporized=""/>
    <personinfo id="JollibeetoPalengke.2" depart="96.00" type="ped" speedFactor="1.01" duration="124.80" waitingTime="0.00" timeLoss="12.73" traveltime="124.80">
        <walk depart="96.00" departPos="10.42" arrival="220.80" arrivalPos="27.04" duration="124.80" routeLength="157.27" timeLoss="12.73" maxSpeed="1.40" waitingTime="0.00"/>
    </personinfo>
    <personinfo id="PalengketoJollibee.2" depart="96.00" type="ped" speedFactor="0.98" duration="134.40" waitingTime="0.00" timeLoss="13.61" traveltime="134.40">
        <walk depart="96.00" departPos="25.00" arrival="230.40" arrivalPos="5.21" duration="134.40" routeLength="164.52" timeLoss="13.61" maxSpeed="1.36" waitingTime="0.00"/>
    </personinfo>
    <tripinfo id="NuvalitoStaRosa.0" depart="56.20" departLane="-145507700#3_2" departPos="2.30" departPosLat="0.00" departSpeed="29.07" departDelay="0.00" arrival="241.30" arrivalLane="-92878383#0_1" arrivalPos="603.68" arrivalPosLat="-0.00" arrivalSpeed="8.47" duration="185.10" routeLength="2602.84" waitingTime="0.00" waitingCount="0" stopTime="0.00" timeLoss="8.48" rerouteNo="1" devices="tripinfo_NuvalitoStaRosa.0 routing_NuvalitoStaRosa.0" vType="motorcycle" speedFactor="1.05" vaporized=""/>
    <personinfo id="JollibeetoPalengke.3" depart="144.00" type="ped" speedFactor="1.08" duration="116.30" waitingTime="0.00" timeLoss="11.71" traveltime="116.30">
        <walk depart="144.00" departPos="10.42" arrival="260.30" arrivalPos="27.04" duration="116.30" routeLength="157.27" timeLoss="11.71" maxSpeed="1.50" waitingTime="0.00"/>
    </personinfo>
    <tripinfo id="NuvalitoStaRosa.1" depart="76.20" departLane="-145507700#3_1" departPos="5.10" departPosLat="0.00" departSpeed="29.17" departDelay="0.00" arrival="265.60" arrivalLane="-92878383#0_1" arrivalPos="603.68" arrivalPosLat="-0.00" arrivalSpeed="8.66" duration="189.40" routeLength="2600.04" waitingTime="0.00" waitingCount="0" stopTime="0.00" timeLoss="13.61" rerouteNo="1" devices="tripinfo_NuvalitoStaRosa.1 routing_NuvalitoStaRosa.1" vType="car" speedFactor="1.05" vaporized=""/>
    <personinfo id="PalengketoJollibee.3" depart="144.00" type="ped" speedFactor="1.04" duration="127.60" waitingTime="1.30" timeLoss="14.01" traveltime="127.60">
        <walk depart="144.00" departPos="25.00" arrival="271.60" arrivalPos="5.21" duration="127.60" routeLength="164.52" timeLoss="14.01" maxSpeed="1.45" waitingTime="1.30"/>
    </personinfo>
    <personinfo id="JollibeetoSTI.0" depart="0.00" type="ped" speedFactor="0.98" duration="272.10" waitingTime="0.80" timeLoss="27.19" traveltime="272.10">
        <walk depart="0.00" departPos="10.42" arrival="272.10" arrivalPos="19.02" duration="272.10" routeLength="335.01" timeLoss="27.19" maxSpeed="1.37" waitingTime="0.80"/>
    </personinfo>
    <tripinfo id="CalambatoBalibago.0" depart="150.70" departLane="185930141#0_2" departPos="2.30" departPosLat="0.00" departSpeed="21.61" departDelay="0.00" arrival="272.60" arrivalLane="89908334_1" arrivalPos="36.84" arrivalPosLat="0.00" arrivalSpeed="10.95" duration="121.90" routeLength="913.97" waitingTime="52.10" waitingCount="1" stopTime="0.00" timeLoss="68.76" rerouteNo="1" devices="tripinfo_CalambatoBalibago.0 routing_CalambatoBalibago.0" vType="tricycle" speedFactor="0.78" vaporized=""/>
    <tripinfo id="BalibagotoStaRosa.0" depart="55.40" departLane="145507698_1" departPos="7.55" departPosLat="0.00" departSpeed="0.00" departDelay="0.00" arrival="274.80" arrivalLane="-92878383#0_1" arrivalPos="603.68" arrivalPosLat="-0.00" arrivalSpeed="8.31" duration="219.40" routeLength="1983.33" waitingTime="0.00" waitingCount="0" stopTime="0.00" timeLoss="30.75" rerouteNo="1" devices="tripinfo_BalibagotoStaRosa.0 routing_BalibagotoStaRosa.0" vType="jeep" speedFactor="1.00" vaporized=""/>
    <tripinfo id="CalambatoBalibago.1" depart="194.30" departLane="185930141#0_2" departPos="12.10" departPosLat="0.00" departSpeed="27.78" departDelay="0.00" arrival="277.80" arrivalLane="89908334_1" arrivalPos="36.84" arrivalPosLat="0.00" arrivalSpeed="9.05" duration="83.50" routeLength="904.17" waitingTime="8.60" waitingCount="1" stopTime="0.00" timeLoss="42.33" rerouteNo="1" devices="tripinfo_CalambatoBalibago.1 routing_CalambatoBalibago.1" vType="bus" speedFactor="1.00" vaporized=""/>
    <tripinfo id="CalambatoBalibago.2" depart="238.20" departLane="185930141#0_2" departPos="2.30" departPosLat="0.00" departSpeed="31.50" departDelay="0.00" arrival="290.20" arrivalLane="89908334_1" arrivalPos="36.84" arrivalPosLat="0.00" arrivalSpeed="11.39" duration="52.00" routeLength="913.97" waitingTime="0.00" waitingCount="0" stopTime="0.00" timeLoss="15.49" rerouteNo="1" devices="tripinfo_CalambatoBalibago.2 routing_CalambatoBalibago.2" vType="tricycle" speedFactor="1.13" vaporized=""/>
    <personinfo id="STItoSakayan.0" depart="0.00" type="ped" speedFactor="1.00" duration="298.90" waitingTime="0.20" timeLoss="29.88" traveltime="298.90">
        <walk depart="0.00" departPos="25.00" arrival="298.90" arrivalPos="27.04" duration="298.90" routeLength="373.08" timeLoss="29.88" maxSpeed="1.39" waitingTime="0.20"/>
    </personinfo>
    <tripinfo id="BiñantoCalamba.0" depart="21.20" departLane="553887793#0_1" departPos="2.30" departPosLat="0.00" departSpeed="30.40" departDelay="0.00" arrival="307.90" arrivalLane="-185930141#0_1" arrivalPos="428.88" arrivalPosLat="0.00" arrivalSpeed="30.23" duration="286.70" routeLength="1510.47" waitingTime="224.70" waitingCount="2" stopTime="0.00" timeLoss="236.96" rerouteNo="1" devices="tripinfo_BiñantoCalamba.0 routing_BiñantoCalamba.0" vType="motorcycle" speedFactor="1.09" vaporized=""/>
    <personinfo id="JollibeetoPalengke.4" depart="192.00" type="ped" speedFactor="1.03" duration="121.60" waitingTime="0.00" timeLoss="11.69" traveltime="121.60">
        <walk depart="192.00" departPos="10.42" arrival="313.60" arrivalPos="27.04" duration="121.60" routeLength="157.27" timeLoss="11.69" maxSpeed="1.43" waitingTime="0.00"/>
    </personinfo>
    <tripinfo id="BiñantoCalamba.1" depart="178.20" departLane="553887793#0_1" departPos="2.30" departPosLat="0.00" departSpeed="20.90" departDelay="0.00" arrival="315.80" arrivalLane="-185930141#0_1" arrivalPos="428.88" arrivalPosLat="0.00" arrivalSpeed="20.78" duration="137.60" routeLength="1510.47" waitingTime="54.70" waitingCount="1" stopTime="0.00" timeLoss="65.31" rerouteNo="1" devices="tripinfo_BiñantoCalamba.1 routing_BiñantoCalamba.1" vType="motorcycle" speedFactor="0.75" vaporized=""/>
    <personinfo id="JollibeetoSTI.1" depart="48.00" type="ped" speedFactor="1.03" duration="268.60" waitingTime="1.80" timeLoss="34.98" traveltime="268.60">
        <walk depart="48.00" departPos="10.42" arrival="316.60" arrivalPos="19.02" duration="268.60" routeLength="335.01" timeLoss="34.98" maxSpeed="1.43" waitingTime="1.80"/>
    </personinfo>
    <personinfo id="PalengketoSTI.1" depart="48.00" type="ped" speedFactor="1.10" duration="273.30" waitingTime="1.20" timeLoss="30.67" traveltime="273.30">
        <walk depart="48.00" departPos="25.00" arrival="321.30" arrivalPos="19.02" duration="273.30" routeLength="369.14" timeLoss="30.67" maxSpeed="1.52" waitingTime="1.20"/>
    </personinfo>
    <tripinfo id="BalibagotoCalamba.1" depart="80.90" departLane="145507698_1" departPos="7.55" departPosLat="0.00" departSpeed="0.00" departDelay="0.00" arrival="321.60" arrivalLane="-185930141#0_1" arrivalPos="428.88" arrivalPosLat="-0.00" arrivalSpeed="27.75" duration="240.70" routeLength="1523.59" waitingTime="111.00" waitingCount="1" stopTime="0.00" timeLoss="156.42" rerouteNo="1" devices="tripinfo_BalibagotoCalamba.1 routing_BalibagotoCalamba.1" vType="jeep" speedFactor="1.00" vaporized=""/>
    <personinfo id="PalengketoJollibee.4" depart="192.00" type="ped" speedFactor="0.98" duration="143.90" waitingTime="9.60" timeLoss="23.20" traveltime="143.90">
        <walk depart="192.00" departPos="25.00" arrival="335.90" arrivalPos="5.21" duration="143.90" routeLength="164.52" timeLoss="23.20" maxSpeed="1.36" waitingTime="9.60"/>
    </personinfo>
    <tripinfo id="StaRosatoBiñan.0" depart="38.20" departLane="92878383#0_1" departPos="7.20" departPosLat="0.00" departSpeed="9.30" departDelay="0.00" arrival="336.70" arrivalLane="-553887793#0_1" arrivalPos="201.31" arrivalPosLat="-0.00" arrivalSpeed="31.02" duration="298.50" routeLength="1605.62" waitingTime="156.50" waitingCount="1" stopTime="0.00" timeLoss="172.74" rerouteNo="1" devices="tripinfo_StaRosatoBiñan.0 routing_StaRosatoBiñan.0" vType="truck" speedFactor="1.12" vaporized=""/>
    <tripinfo id="BiñantoStaRosa.0" depart="24.20" departLane="553887793#0_2" departPos="8.10" departPosLat="0.00" departSpeed="27.78" departDelay="0.00" arrival="339.20" arrivalLane="-92878383#0_1" arrivalPos="603.68" arrivalPosLat="-0.00" arrivalSpeed="8.32" duration="315.00" routeLength="1782.95" waitingTime="145.20" waitingCount="1" stopTime="0.00" timeLoss="160.91" rerouteNo="1" devices="tripinfo_BiñantoStaRosa.0 routing_BiñantoStaRosa.0" vType="jeep" speedFactor="1.00" vaporized=""/>
    <tripinfo id="StaRosatoBiñan.1" depart="116.80" departLane="92878383#0_1" departPos="7.20" departPosLat="0.00" departSpeed="5.33" departDelay="0.80" arrival="340.30" arrivalLane="-553887793#0_1" arrivalPos="201.31" arrivalPosLat="-0.00" arrivalSpeed="27.68" duration="223.50" routeLength="1605.62" waitingTime="64.10" waitingCount="1" stopTime="0.00" timeLoss="82.68" rerouteNo="1" devices="tripinfo_StaRosatoBiñan.1 routing_StaRosatoBiñan.1" vType="truck" speedFactor="1.00" vaporized=""/>
    <tripinfo id="StaRosatoBalibago.0" depart="5.30" departLane="92878383#0_1" departPos="2.30" departPosLat="0.00" departSpeed="8.33" departDelay="0.00" arrival="345.50" arrivalLane="-32083237#0_1" arrivalPos="36.46" arrivalPosLat="0.00" arrivalSpeed="15.35" duration="340.20" routeLength="1364.26" waitingTime="186.60" waitingCount="2" stopTime="0.00" timeLoss="206.17" rerouteNo="1" devices="tripinfo_StaRosatoBalibago.0 routing_StaRosatoBalibago.0" vType="tricycle" speedFactor="1.00" vaporized=""/>
    <tripinfo id="BalibagotoNuvali.1" depart="289.70" departLane="777619905_1" departPos="2.30" departPosLat="0.00" departSpeed="5.50" departDelay="0.00" arrival="350.80" arrivalLane="145507700#3_2" arrivalPos="783.31" arrivalPosLat="0.00" arrivalSpeed="29.68" duration="61.10" routeLength="1315.67" waitingTime="0.00" waitingCount="0" stopTime="0.00" timeLoss="11.33" rerouteNo="1" devices="tripinfo_BalibagotoNuvali.1 routing_BalibagotoNuvali.1" vType="tricycle" speedFactor="1.07" vaporized=""/>
    <tripinfo id="StaRosatoBalibago.1" depart="76.60" departLane="92878383#0_1" departPos="8.10" departPosLat="0.00" departSpeed="8.33" departDelay="0.00" arrival="352.50" arrivalLane="-32083237#0_1" arrivalPos="36.46" arrivalPosLat="0.00" arrivalSpeed="11.40" duration="275.90" routeLength="1358.46" waitingTime="103.90" waitingCount="1" stopTime="0.00" timeLoss="142.51" rerouteNo="1" devices="tripinfo_StaRosatoBalibago.1 routing_StaRosatoBalibago.1" vType="jeep" speedFactor="1.00" vaporized=""/>
    <personinfo id="STItoSakayan.1" depart="48.00" type="ped" speedFactor="0.99" duration="308.70" waitingTime="7.00" timeLoss="37.78" traveltime="308.70">
        <walk depart="48.00" departPos="25.00" arrival="356.70" arrivalPos="27.04" duration="308.70" routeLength="373.08" timeLoss="37.78" maxSpeed="1.38" waitingTime="7.00"/>
    </personinfo>
    <personinfo id="PalengketoSTI.0" depart="0.00" type="ped" speedFactor="0.81" duration="365.10" waitingTime="1.20" timeLoss="37.50" traveltime="365.10">
        <walk depart="0.00" departPos="25.00" arrival="365.10" arrivalPos="19.02" duration="365.10" routeLength="369.14" timeLoss="37.50" maxSpeed="1.13" waitingTime="1.20"/>
    </personinfo>
    <personinfo id="JollibeetoSTI.2" depart="96.00" type="ped" speedFactor="0.98" duration="275.90" waitingTime="0.80" timeLoss="30.24" traveltime="275.90">
        <walk depart="96.00" departPos="10.42" arrival="371.90" arrivalPos="19.02" duration="275.90" routeLength="335.01" timeLoss="30.24" maxSpeed="1.36" waitingTime="0.80"/>
    </personinfo>
    <personinfo id="PalengketoSTI.2" depart="96.00" type="ped" speedFactor="1.08" duration="276.20" waitingTime="1.20" timeLoss="30.02" traveltime="276.20">
        <walk depart="96.00" departPos="25.00" arrival="372.20" arrivalPos="19.02" duration="276.20" routeLength="369.14" timeLoss="30.02" maxSpeed="1.50" waitingTime="1.20"/>
    </personinfo>
    <personinfo id="PalengketoJollibee.5" depart="240.00" type="ped" speedFactor="0.96" duration="137.50" waitingTime="0.00" timeLoss="13.64" traveltime="137.50">
        <walk depart="240.00" departPos="25.00" arrival="377.50" arrivalPos="5.21" duration="137.50" routeLength="164.52" timeLoss="13.64" maxSpeed="1.33" waitingTime="0.00"/>
    </personinfo>
    <personinfo id="STItoSakayan.2" depart="96.00" type="ped" speedFactor="1.05" duration="285.40" waitingTime="0.50" timeLoss="29.06" traveltime="285.40">
        <walk depart="96.00" departPos="25.00" arrival="381.40" arrivalPos="27.04" duration="285.40" routeLength="373.08" timeLoss="29.06" maxSpeed="1.46" waitingTime="0.50"/>
    </personinfo>
    <tripinfo id="StaRosatoNuvali.0" depart="193.30" departLane="92878383#0_1" departPos="8.10" departPosLat="0.00" departSpeed="8.33" departDelay="0.00" arrival="386.80" arrivalLane="145507700#3_1" arrivalPos="783.31" arrivalPosLat="0.00" arrivalSpeed="27.77" duration="193.50" routeLength="2442.86" waitingTime="0.00" waitingCount="0" stopTime="0.00" timeLoss="23.80" rerouteNo="1" devices="tripinfo_StaRosatoNuvali.0 routing_StaRosatoNuvali.0" vType="jeep" speedFactor="1.00" vaporized=""/>
    <personinfo id="JollibeetoPalengke.5" depart="240.00" type="ped" speedFactor="0.83" duration="152.00" waitingTime="0.00" timeLoss="15.73" traveltime="152.00">
        <walk depart="240.00" departPos="10.42" arrival="392.00" arrivalPos="27.04" duration="152.00" routeLength="157.27" timeLoss="15.73" maxSpeed="1.15" waitingTime="0.00"/>
    </personinfo>
    <tripinfo id="NuvalitoBiñan.1" depart="271.60" departLane="-145507700#3_1" departPos="5.10" departPosLat="0.00" departSpeed="30.39" departDelay="0.00" arrival="394.50" arrivalLane="-553887793#0_2" arrivalPos="201.31" arrivalPosLat="0.00" arrivalSpeed="30.32" duration="122.90" routeLength="2093.39" waitingTime="36.20" waitingCount="1" stopTime="0.00" timeLoss="52.85" rerouteNo="1" devices="tripinfo_NuvalitoBiñan.1 routing_NuvalitoBiñan.1" vType="car" speedFactor="1.09" vaporized=""/>
    <tripinfo id="NuvalitoBiñan.2" depart="309.60" departLane="-145507700#3_2" departPos="2.30" departPosLat="0.00" departSpeed="30.57" departDelay="0.00" arrival="397.30" arrivalLane="-553887793#0_2" arrivalPos="201.31" arrivalPosLat="0.00" arrivalSpeed="30.55" duration="87.70" routeLength="2096.19" waitingTime="0.00" waitingCount="0" stopTime="0.00" timeLoss="17.92" rerouteNo="1" devices="tripinfo_NuvalitoBiñan.2 routing_NuvalitoBiñan.2" vType="tricycle" speedFactor="1.10" vaporized=""/>
    <tripinfo id="StaRosatoBalibago.2" depart="78.30" departLane="92878383#0_1" departPos="2.30" departPosLat="0.00" departSpeed="2.33" departDelay="0.40" arrival="401.40" arrivalLane="-32083237#0_1" arrivalPos="36.46" arrivalPosLat="0.00" arrivalSpeed="15.38" duration="323.10" routeLength="1364.26" waitingTime="139.20" waitingCount="3" stopTime="0.00" timeLoss="182.98" rerouteNo="1" devices="tripinfo_StaRosatoBalibago.2 routing_StaRosatoBalibago.2" vType="tricycle" speedFactor="0.96" vaporized=""/>
    <personinfo id="TargettoSakayan.0" depart="0.00" type="ped" speedFactor="1.18" duration="405.30" waitingTime="0.30" timeLoss="41.03" traveltime="405.30">
        <walk depart="0.00" departPos="25.00" arrival="405.30" arrivalPos="27.04" duration="405.30" routeLength="596.09" timeLoss="41.03" maxSpeed="1.64" waitingTime="0.30"/>
    </personinfo>
    <tripinfo id="CalambatoBalibago.3" depart="267.10" departLane="185930141#0_2" departPos="8.10" departPosLat="0.00" departSpeed="27.78" departDelay="0.00" arrival="407.60" arrivalLane="89908334_1" arrivalPos="36.84" arrivalPosLat="0.00" arrivalSpeed="8.79" duration="140.50" routeLength="908.17" waitingTime="70.00" waitingCount="1" stopTime="0.00" timeLoss="99.37" rerouteNo="1" devices="tripinfo_CalambatoBalibago.3 routing_CalambatoBalibago.3" vType="jeep" speedFactor="1.00" vaporized=""/>
    <personinfo id="JollibeetoPalengke.6" depart="288.00" type="ped" speedFactor="1.05" duration="120.10" waitingTime="0.00" timeLoss="11.82" traveltime="120.10">
        <walk depart="288.00" departPos="10.42" arrival="408.10" arrivalPos="27.04" duration="120.10" routeLength="157.27" timeLoss="11.82" maxSpeed="1.45" waitingTime="0.00"/>
    </personinfo>
    <personinfo id="JollibeetoSTI.3" depart="144.00" type="ped" speedFactor="1.01" duration="267.30" waitingTime="0.80" timeLoss="27.84" traveltime="267.30">
        <walk depart="144.00" departPos="10.42" arrival="411.30" arrivalPos="19.02" duration="267.30" routeLength="335.01" timeLoss="27.84" maxSpeed="1.40" waitingTime="0.80"/>
    </personinfo>
    <personinfo id="PalengketoJollibee.6" depart="288.00" type="ped" speedFactor="1.06" duration="124.60" waitingTime="0.00" timeLoss="12.54" traveltime="124.60">
        <walk depart="288.00" departPos="25.00" arrival="412.60" arrivalPos="5.21" duration="124.60" routeLength="164.52" timeLoss="12.54" maxSpeed="1.47" waitingTime="0.00"/>
    </personinfo>
    <tripinfo id="BalibagotoNuvali.2" depart="337.00" departLane="777619905_1" departPos="5.10" departPosLat="0.00" departSpeed="0.00" departDelay="0.00" arrival="413.40" arrivalLane="145507700#3_1" arrivalPos="783.31" arrivalPosLat="-0.00" arrivalSpeed="27.76" duration="76.40" routeLength="1312.87" waitingTime="0.00" waitingCount="0" stopTime="0.00" timeLoss="23.27" rerouteNo="1" devices="tripinfo_BalibagotoNuvali.2 routing_BalibagotoNuvali.2" vType="jeep" speedFactor="1.00" vaporized=""/>
    <tripinfo id="StaRosatoBalibago.3" depart="115.60" departLane="92878383#0_1" departPos="8.10" departPosLat="0.00" departSpeed="8.33" departDelay="0.00" arrival="414.40" arrivalLane="-32083237#0_1" arrivalPos="36.46" arrivalPosLat="0.00" arrivalSpeed="11.38" duration="298.80" routeLength="1358.46" waitingTime="110.00" waitingCount="5" stopTime="0.00" timeLoss="165.46" rerouteNo="1" devices="tripinfo_StaRosatoBalibago.3 routing_StaRosatoBalibago.3" vType="jeep" speedFactor="1.00" vaporized=""/>
    <tripinfo id="NuvalitoBiñan.3" depart="341.80" departLane="-145507700#3_1" departPos="5.10" departPosLat="0.00" departSpeed="30.77" departDelay="0.00" arrival="422.60" arrivalLane="-553887793#0_2" arrivalPos="201.31" arrivalPosLat="0.00" arrivalSpeed="30.77" duration="80.80" routeLength="2093.39" waitingTime="0.00" waitingCount="0" stopTime="0.00" timeLoss="11.58" rerouteNo="1" devices="tripinfo_NuvalitoBiñan.3 routing_NuvalitoBiñan.3" vType="car" speedFactor="1.11" vaporized=""/>
    <tripinfo id="CalambatoBalibago.4" depart="368.10" departLane="185930141#0_2" departPos="2.30" departPosLat="0.00" departSpeed="29.04" departDelay="0.00" arrival="423.00" arrivalLane="89908334_1" arrivalPos="36.84" arrivalPosLat="0.00" arrivalSpeed="11.18" duration="54.90" routeLength="913.97" waitingTime="0.00" waitingCount="0" stopTime="0.00" timeLoss="15.26" rerouteNo="1" devices="tripinfo_CalambatoBalibago.4 routing_CalambatoBalibago.4" vType="tricycle" speedFactor="1.05" vaporized=""/>
    <tripinfo id="BiñantoStaRosa.1" depart="250.00" departLane="553887793#0_2" departPos="5.10" departPosLat="0.00" departSpeed="26.77" departDelay="0.00" arrival="427.00" arrivalLane="-92878383#0_1" arrivalPos="603.68" arrivalPosLat="-0.00" arrivalSpeed="7.99" duration="177.00" routeLength="1785.95" waitingTime="11.30" waitingCount="1" stopTime="0.00" timeLoss="16.99" rerouteNo="1" devices="tripinfo_BiñantoStaRosa.1 routing_BiñantoStaRosa.1" vType="car" speedFactor="0.96" vaporized=""/>
    <tripinfo id="StaRosatoNuvali.1" depart="235.40" departLane="92878383#0_1" departPos="5.10" departPosLat="0.00" departSpeed="8.30" departDelay="0.00" arrival="430.80" arrivalLane="145507700#3_1" arrivalPos="783.31" arrivalPosLat="0.00" arrivalSpeed="27.58" duration="195.40" routeLength="2445.86" waitingTime="10.80" waitingCount="1" stopTime="0.00" timeLoss="24.81" rerouteNo="1" devices="tripinfo_StaRosatoNuvali.1 routing_StaRosatoNuvali.1" vType="car" speedFactor="1.00" vaporized=""/>
    <tripinfo id="BiñantoNuvali.0" depart="70.30" departLane="553887793#0_1" departPos="5.10" departPosLat="0.00" departSpeed="24.94" departDelay="0.00" arrival="438.90" arrivalLane="145507700#3_1" arrivalPos="783.31" arrivalPosLat="-0.00" arrivalSpeed="24.85" duration="368.60" routeLength="2083.73" waitingTime="258.60" waitingCount="2" stopTime="0.00" timeLoss="283.85" rerouteNo="1" devices="tripinfo_BiñantoNuvali.0 routing_BiñantoNuvali.0" vType="car" speedFactor="0.90" vaporized=""/>
    <tripinfo id="BiñantoNuvali.1" depart="318.30" departLane="553887793#0_1" departPos="5.10" departPosLat="0.00" departSpeed="27.95" departDelay="0.00" arrival="439.50" arrivalLane="145507700#3_2" arrivalPos="783.31" arrivalPosLat="0.00" arrivalSpeed="27.91" duration="121.20" routeLength="2083.73" waitingTime="19.70" waitingCount="1" stopTime="0.00" timeLoss="45.57" rerouteNo="1" devices="tripinfo_BiñantoNuvali.1 routing_BiñantoNuvali.1" vType="car" speedFactor="1.01" vaporized=""/>
    <personinfo id="JollibeetoSTI.4" depart="192.00" type="ped" speedFactor="1.09" duration="252.40" waitingTime="2.40" timeLoss="30.48" traveltime="252.40">
        <walk depart="192.00" departPos="10.42" arrival="444.40" arrivalPos="19.02" duration="252.40" routeLength="335.01" timeLoss="30.48" maxSpeed="1.51" waitingTime="2.40"/>
    </personinfo>
    <tripinfo id="StaRosatoCalamba.0" depart="77.50" departLane="92878383#0_1" departPos="2.30" departPosLat="0.00" departSpeed="6.19" departDelay="0.00" arrival="444.40" arrivalLane="-185930141#0_2" arrivalPos="428.88" arrivalPosLat="0.00" arrivalSpeed="28.51" duration="366.90" routeLength="1858.26" waitingTime="199.50" waitingCount="2" stopTime="0.00" timeLoss="221.96" rerouteNo="1" devices="tripinfo_StaRosatoCalamba.0 routing_StaRosatoCalamba.0" vType="motorcycle" speedFactor="1.03" vaporized=""/>
    <tripinfo id="StaRosatoCalamba.1" depart="93.90" departLane="92878383#0_1" departPos="2.30" departPosLat="0.00" departSpeed="8.24" departDelay="0.00" arrival="445.20" arrivalLane="-185930141#0_1" arrivalPos="428.88" arrivalPosLat="0.00" arrivalSpeed="27.24" duration="351.30" routeLength="1858.26" waitingTime="180.60" waitingCount="2" stopTime="0.00" timeLoss="199.66" rerouteNo="1" devices="tripinfo_StaRosatoCalamba.1 routing_StaRosatoCalamba.1" vType="motorcycle" speedFactor="0.99" vaporized=""/>
    <personinfo id="PalengketoTarget.0" depart="0.00" type="ped" speedFactor="1.07" duration="445.60" waitingTime="2.40" timeLoss="48.03" traveltime="445.60">
        <walk depart="0.00" departPos="25.00" arrival="445.60" arrivalPos="16.04" duration="445.60" routeLength="589.17" timeLoss="48.03" maxSpeed="1.48" waitingTime="2.40"/>
    </personinfo>