<?xml version="1.0" encoding="UTF-8"?>

<!-- generated on 2026-02-23 22:53:18 by Eclipse SUMO sumo Version 1.24.0
<sumoConfiguration xmlns:xsi="http://www.w3.org/2001/XMLSchema-instance" xsi:noNamespaceSchemaLocation="http://sumo.dlr.de/xsd/sumoConfiguration.xsd">

    <input>
        <net-file value="Balibago_traci/network/balibago_signalized.net.xml"/>
        <route-files value="Balibago_traci/demand/flows_slow_traffic.rou.xml"/>
        <additional-files value="Balibago_traci/additionals/balibago.poly.xml,Balibago_traci/ additionals/balibago.add.xml"/>
    </input>

    <output>
        <tripinfo-output value="Balibago_traci/output_DQN/SD_DQN_Train_Tripinfo_NORMAL.xml"/>
        <statistic-output value="Balibago_traci/output_DQN/SD_DQN_Train_Stats_SLOW.xml"/>
    </output>

    <time>
        <begin value="0"/>
        <end value="10800"/>
        <step-length value="0.1"/>
    </time>

    <processing>
        <lateral-resolution value="0.1"/>
        <collision.action value="none"/>
        <collision.check-junctions value="false"/>
        <collision.mingap-factor value="0"/>
    </processing>

    <report>
        <no-warnings value="true"/>
    </report>

    <traci_server>
        <remote-port value="8814"/>
    </traci_server>

    <gui_only>
        <delay value="0"/>
    </gui_only>

</sumoConfiguration>
-->

<tripinfos xmlns:xsi="http://www.w3.org/2001/XMLSchema-instance" xsi:noNamespaceSchemaLocation="http://sumo.dlr.de/xsd/tripinfo_file.xsd">
    <tripinfo id="BalibagotoNuvali.0" depart="9.20" departLane="777619905_1" departPos="2.30" departPosLat="0.00" departSpeed="5.50" departDelay="0.00" arrival="75.80" arrivalLane="145507700#3_1" arrivalPos="783.31" arrivalPosLat="-0.00" arrivalSpeed="26.09" duration="66.60" routeLength="1315.67" waitingTime="0.00" waitingCount="0" stopTime="0.00" timeLoss="9.97" rerouteNo="1" devices="tripinfo_BalibagotoNuvali.0 routing_BalibagotoNuvali.0" vType="tricycle" speedFactor="0.94" vaporized=""/>
    <personinfo id="JollibeetoPalengke.0" depart="0.00" type="ped" speedFactor="1.06" duration="125.10" waitingTime="6.30" timeLoss="18.27" traveltime="125.10">
        <walk depart="0.00" departPos="10.42" arrival="125.10" arrivalPos="27.04" duration="125.10" routeLength="157.27" timeLoss="18.27" maxSpeed="1.47" waitingTime="6.30"/>
    </personinfo>
    <personinfo id="PalengketoJollibee.0" depart="0.00" type="ped" speedFactor="0.95" duration="138.10" waitingTime="0.00" timeLoss="13.55" traveltime="138.10">
        <walk depart="0.00" departPos="25.00" arrival="138.10" arrivalPos="5.21" duration="138.10" routeLength="164.52" timeLoss="13.55" maxSpeed="1.32" waitingTime="0.00"/>
    </personinfo>
    <tripinfo id="BiñantoBalibago.0" depart="90.20" departLane="553887793#0_1" departPos="12.10" departPosLat="0.00" departSpeed="27.78" departDelay="0.00" arrival="152.70" arrivalLane="-32083237#0_1" arrivalPos="36.46" arrivalPosLat="0.00" arrivalSpeed="11.32" duration="62.50" routeLength="992.33" waitingTime="0.00" waitingCount="0" stopTime="0.00" timeLoss="23.09" rerouteNo="1" devices="tripinfo_BiñantoBalibago.0 routing_BiñantoBalibago.0" vType="bus" speedFactor="1.00" vaporized=""/>
    <tripinfo id="NuvalitoCalamba.0" depart="45.30" departLane="-145507700#3_1" departPos="7.20" departPosLat="0.00" departSpeed="28.04" departDelay="0.00" arrival="154.60" arrivalLane="-185930141#0_2" arrivalPos="428.88" arrivalPosLat="0.00" arrivalSpeed="28.01" duration="109.30" routeLength="2319.66" waitingTime="0.00" waitingCount="0" stopTime="0.00" timeLoss="25.32" rerouteNo="1" devices="tripinfo_NuvalitoCalamba.0 routing_NuvalitoCalamba.0" vType="truck" speedFactor="1.01" vaporized=""/>
    <tripinfo id="BalibagotoBiñan.0" depart="37.20" departLane="145507698_1" departPos="2.30" departPosLat="0.00" departSpeed="9.75" departDelay="0.00" arrival="181.40" arrivalLane="-553887793#0_1" arrivalPos="201.31" arrivalPosLat="0.00" arrivalSpeed="29.77" duration="144.20" routeLength="1690.81" waitingTime="30.60" waitingCount="1" stopTime="0.00" timeLoss="59.61" rerouteNo="1" devices="tripinfo_BalibagotoBiñan.0 routing_BalibagotoBiñan.0" vType="tricycle" speedFactor="1.07" vaporized=""/>
    <personinfo id="PalengketoJollibee.1" depart="60.00" type="ped" speedFactor="1.01" duration="130.00" waitingTime="0.00" timeLoss="13.05" traveltime="130.00">
        <walk depart="60.00" departPos="25.00" arrival="190.00" arrivalPos="5.21" duration="130.00" routeLength="164.52" timeLoss="13.05" maxSpeed="1.41" waitingTime="0.00"/>
    </personinfo>
    <personinfo id="JollibeetoPalengke.1" depart="60.00" type="ped" speedFactor="0.94" duration="133.90" waitingTime="0.00" timeLoss="13.22" traveltime="133.90">
        <walk depart="60.00" departPos="10.42" arrival="193.90" arrivalPos="27.04" duration="133.90" routeLength="157.27" timeLoss="13.22" maxSpeed="1.30" waitingTime="0.00"/>
    </personinfo>
    <tripinfo id="CalambatoNuvali.0" depart="49.20" departLane="185930141#0_2" departPos="5.10" departPosLat="0.00" departSpeed="32.61" departDelay="0.00" arrival="211.50" arrivalLane="145507700#3_1" arrivalPos="783.31" arrivalPosLat="-0.00" arrivalSpeed="32.55" duration="162.30" routeLength="2332.87" waitingTime="65.00" waitingCount="1" stopTime="0.00" timeLoss="89.35" rerouteNo="1" devices="tripinfo_CalambatoNuvali.0 routing_CalambatoNuvali.0" vType="car" speedFactor="1.17" vaporized=""/>
    <personinfo id="JollibeetoPalengke.2" depart="120.00" type="ped" speedFactor="1.01" duration="124.40" waitingTime="0.00" timeLoss="12.33" traveltime="124.40">
        <walk depart="120.00" departPos="10.42" arrival="244.40" arrivalPos="27.04" duration="124.40" routeLength="157.27" timeLoss="12.33" maxSpeed="1.40" waitingTime="0.00"/>
    </personinfo>
    <personinfo id="JollibeetoSTI.0" depart="0.00" type="ped" speedFactor="1.08" duration="249.30" waitingTime="0.80" timeLoss="26.47" traveltime="249.30">
        <walk depart="0.00" departPos="10.42" arrival="249.30" arrivalPos="19.02" duration="249.30" routeLength="335.01" timeLoss="26.47" maxSpeed="1.50" waitingTime="0.80"/>
    </personinfo>
    <personinfo id="PalengketoJollibee.2" depart="120.00" type="ped" speedFactor="0.97" duration="135.70" waitingTime="0.00" timeLoss="13.57" traveltime="135.70">
        <walk depart="120.00" departPos="25.00" arrival="255.70" arrivalPos="5.21" duration="135.70" routeLength="164.52" timeLoss="13.57" maxSpeed="1.35" waitingTime="0.00"/>
    </personinfo>
    <tripinfo id="BalibagotoStaRosa.0" depart="55.40" departLane="145507698_1" departPos="7.55" departPosLat="0.00" departSpeed="0.00" departDelay="0.00" arrival="273.60" arrivalLane="-92878383#0_1" arrivalPos="603.68" arrivalPosLat="0.00" arrivalSpeed="8.28" duration="218.20" routeLength="1986.48" waitingTime="0.00" waitingCount="0" stopTime="0.00" timeLoss="29.01" rerouteNo="1" devices="tripinfo_BalibagotoStaRosa.0 routing_BalibagotoStaRosa.0" vType="bus" speedFactor="1.00" vaporized=""/>
    <personinfo id="PalengketoSTI.0" depart="0.00" type="ped" speedFactor="1.07" duration="278.30" waitingTime="1.20" timeLoss="29.95" traveltime="278.30">
        <walk depart="0.00" departPos="25.00" arrival="278.30" arrivalPos="19.02" duration="278.30" routeLength="369.14" timeLoss="29.95" maxSpeed="1.49" waitingTime="1.20"/>
    </personinfo>
    <tripinfo id="BiñantoCalamba.0" depart="178.20" departLane="553887793#0_1" departPos="2.30" departPosLat="0.00" departSpeed="28.88" departDelay="0.00" arrival="286.10" arrivalLane="-185930141#0_1" arrivalPos="428.88" arrivalPosLat="0.00" arrivalSpeed="28.62" duration="107.90" routeLength="1510.47" waitingTime="46.80" waitingCount="2" stopTime="0.00" timeLoss="55.57" rerouteNo="1" devices="tripinfo_BiñantoCalamba.0 routing_BiñantoCalamba.0" vType="motorcycle" speedFactor="1.04" vaporized=""/>
    <tripinfo id="CalambatoBalibago.0" depart="150.70" departLane="185930141#0_2" departPos="8.10" departPosLat="0.00" departSpeed="27.78" departDelay="0.00" arrival="286.90" arrivalLane="89908334_1" arrivalPos="36.84" arrivalPosLat="0.00" arrivalSpeed="8.88" duration="136.20" routeLength="908.17" waitingTime="65.80" waitingCount="1" stopTime="0.00" timeLoss="94.89" rerouteNo="1" devices="tripinfo_CalambatoBalibago.0 routing_CalambatoBalibago.0" vType="jeep" speedFactor="1.00" vaporized=""/>
    <personinfo id="STItoSakayan.0" depart="0.00" type="ped" speedFactor="1.03" duration="290.00" waitingTime="0.00" timeLoss="28.80" traveltime="290.00">
        <walk depart="0.00" departPos="25.00" arrival="290.00" arrivalPos="27.04" duration="290.00" routeLength="373.08" timeLoss="28.80" maxSpeed="1.43" waitingTime="0.00"/>
    </personinfo>
    <tripinfo id="CalambatoBalibago.1" depart="194.30" departLane="185930141#0_2" departPos="8.10" departPosLat="0.00" departSpeed="27.78" departDelay="0.00" arrival="291.00" arrivalLane="89908334_1" arrivalPos="36.84" arrivalPosLat="0.00" arrivalSpeed="8.95" duration="96.70" routeLength="908.17" waitingTime="18.70" waitingCount="1" stopTime="0.00" timeLoss="55.47" rerouteNo="1" devices="tripinfo_CalambatoBalibago.1 routing_CalambatoBalibago.1" vType="jeep" speedFactor="1.00" vaporized=""/>
    <personinfo id="JollibeetoPalengke.3" depart="180.00" type="ped" speedFactor="1.08" duration="116.20" waitingTime="0.00" timeLoss="11.61" traveltime="116.20">
        <walk depart="180.00" departPos="10.42" arrival="296.20" arrivalPos="27.04" duration="116.20" routeLength="157.27" timeLoss="11.61" maxSpeed="1.50" waitingTime="0.00"/>
    </personinfo>
    <tripinfo id="BalibagotoCalamba.0" depart="80.90" departLane="145507698_1" departPos="7.55" departPosLat="0.00" departSpeed="0.00" departDelay="0.00" arrival="298.40" arrivalLane="-185930141#0_1" arrivalPos="428.88" arrivalPosLat="-0.00" arrivalSpeed="27.78" duration="217.50" routeLength="1523.59" waitingTime="85.80" waitingCount="2" stopTime="0.00" timeLoss="133.36" rerouteNo="1" devices="tripinfo_BalibagotoCalamba.0 routing_BalibagotoCalamba.0" vType="jeep" speedFactor="1.00" vaporized=""/>
    <tripinfo id="CalambatoBalibago.2" depart="238.20" departLane="185930141#0_2" departPos="8.10" departPosLat="0.00" departSpeed="27.78" departDelay="0.00" arrival="302.50" arrivalLane="89908334_1" arrivalPos="36.84" arrivalPosLat="0.00" arrivalSpeed="9.04" duration="64.30" routeLength="908.17" waitingTime="0.00" waitingCount="0" stopTime="0.00" timeLoss="23.06" rerouteNo="1" devices="tripinfo_CalambatoBalibago.2 routing_CalambatoBalibago.2" vType="jeep" speedFactor="1.00" vaporized=""/>
    <personinfo id="JollibeetoSTI.1" depart="60.00" type="ped" speedFactor="1.12" duration="245.60" waitingTime="3.60" timeLoss="30.10" traveltime="245.60">
        <walk depart="60.00" departPos="10.42" arrival="305.60" arrivalPos="19.02" duration="245.60" routeLength="335.01" timeLoss="30.10" maxSpeed="1.55" waitingTime="3.60"/>
    </personinfo>
    <tripinfo id="StaRosatoBiñan.0" depart="38.20" departLane="92878383#0_1" departPos="2.30" departPosLat="0.00" departSpeed="8.55" departDelay="0.00" arrival="311.60" arrivalLane="-553887793#0_1" arrivalPos="201.31" arrivalPosLat="-0.00" arrivalSpeed="28.51" duration="273.40" routeLength="1610.52" waitingTime="130.90" waitingCount="1" stopTime="0.00" timeLoss="136.13" rerouteNo="1" devices="tripinfo_StaRosatoBiñan.0 routing_StaRosatoBiñan.0" vType="motorcycle" speedFactor="1.03" vaporized=""/>
    <personinfo id="PalengketoJollibee.3" depart="180.00" type="ped" speedFactor="0.99" duration="133.50" waitingTime="0.70" timeLoss="13.81" traveltime="133.50">
        <walk depart="180.00" departPos="25.00" arrival="313.50" arrivalPos="5.21" duration="133.50" routeLength="164.52" timeLoss="13.81" maxSpeed="1.37" waitingTime="0.70"/>
    </personinfo>
    <tripinfo id="StaRosatoBalibago.0" depart="5.30" departLane="92878383#0_1" departPos="2.30" departPosLat="0.00" departSpeed="9.27" departDelay="0.00" arrival="317.30" arrivalLane="-32083237#0_1" arrivalPos="36.46" arrivalPosLat="0.00" arrivalSpeed="15.27" duration="312.00" routeLength="1364.26" waitingTime="174.00" waitingCount="1" stopTime="0.00" timeLoss="191.53" rerouteNo="1" devices="tripinfo_StaRosatoBalibago.0 routing_StaRosatoBalibago.0" vType="tricycle" speedFactor="1.11" vaporized=""/>
    <tripinfo id="BiñantoStaRosa.0" depart="24.20" departLane="553887793#0_1" departPos="2.30" departPosLat="0.00" departSpeed="25.64" departDelay="0.00" arrival="331.10" arrivalLane="-92878383#0_1" arrivalPos="603.68" arrivalPosLat="-0.00" arrivalSpeed="7.59" duration="306.90" routeLength="1788.75" waitingTime="130.30" waitingCount="1" stopTime="0.00" timeLoss="139.66" rerouteNo="1" devices="tripinfo_BiñantoStaRosa.0 routing_BiñantoStaRosa.0" vType="tricycle" speedFactor="0.92" vaporized=""/>
    <tripinfo id="StaRosatoBalibago.1" depart="141.60" departLane="92878383#0_1" departPos="8.10" departPosLat="0.00" departSpeed="8.33" departDelay="0.00" arrival="344.80" arrivalLane="-32083237#0_1" arrivalPos="36.46" arrivalPosLat="0.00" arrivalSpeed="11.27" duration="203.20" routeLength="1358.46" waitingTime="21.90" waitingCount="3" stopTime="0.00" timeLoss="69.86" rerouteNo="1" devices="tripinfo_StaRosatoBalibago.1 routing_StaRosatoBalibago.1" vType="jeep" speedFactor="1.00" vaporized=""/>
    <personinfo id="STItoSakayan.1" depart="60.00" type="ped" speedFactor="1.04" duration="286.00" waitingTime="0.10" timeLoss="28.65" traveltime="286.00">
        <walk depart="60.00" departPos="25.00" arrival="346.00" arrivalPos="27.04" duration="286.00" routeLength="373.08" timeLoss="28.65" maxSpeed="1.45" waitingTime="0.10"/>
    </personinfo>
    <personinfo id="JollibeetoPalengke.4" depart="240.00" type="ped" speedFactor="1.03" duration="122.10" waitingTime="0.00" timeLoss="12.19" traveltime="122.10">
        <walk depart="240.00" departPos="10.42" arrival="362.10" arrivalPos="27.04" duration="122.10" routeLength="157.27" timeLoss="12.19" maxSpeed="1.43" waitingTime="0.00"/>
    </personinfo>
    <personinfo id="PalengketoJollibee.4" depart="240.00" type="ped" speedFactor="1.02" duration="128.60" waitingTime="0.00" timeLoss="12.92" traveltime="128.60">
        <walk depart="240.00" departPos="25.00" arrival="368.60" arrivalPos="5.21" duration="128.60" routeLength="164.52" timeLoss="12.92" maxSpeed="1.42" waitingTime="0.00"/>
    </personinfo>
    <tripinfo id="StaRosatoNuvali.0" depart="193.30" departLane="92878383#0_1" departPos="7.20" departPosLat="0.00" departSpeed="8.98" departDelay="0.00" arrival="369.90" arrivalLane="145507700#3_1" arrivalPos="783.31" arrivalPosLat="0.00" arrivalSpeed="29.90" duration="176.60" routeLength="2443.76" waitingTime="0.00" waitingCount="0" stopTime="0.00" timeLoss="18.96" rerouteNo="1" devices="tripinfo_StaRosatoNuvali.0 routing_StaRosatoNuvali.0" vType="truck" speedFactor="1.08" vaporized=""/>
    <tripinfo id="NuvalitoBiñan.0" depart="271.60" departLane="-145507700#3_1" departPos="2.30" departPosLat="0.00" departSpeed="29.49" departDelay="0.00" arrival="376.10" arrivalLane="-553887793#0_2" arrivalPos="201.31" arrivalPosLat="0.00" arrivalSpeed="29.37" duration="104.50" routeLength="2096.19" waitingTime="25.80" waitingCount="1" stopTime="0.00" timeLoss="32.16" rerouteNo="1" devices="tripinfo_NuvalitoBiñan.0 routing_NuvalitoBiñan.0" vType="motorcycle" speedFactor="1.06" vaporized=""/>
    <personinfo id="PalengketoSTI.1" depart="60.00" type="ped" speedFactor="0.94" duration="317.20" waitingTime="1.50" timeLoss="33.61" traveltime="317.20">
        <walk depart="60.00" departPos="25.00" arrival="377.20" arrivalPos="19.02" duration="317.20" routeLength="369.14" timeLoss="33.61" maxSpeed="1.30" waitingTime="1.50"/>
    </personinfo>
    <personinfo id="JollibeetoSTI.2" depart="120.00" type="ped" speedFactor="1.02" duration="265.90" waitingTime="1.70" timeLoss="28.44" traveltime="265.90">
        <walk depart="120.00" departPos="10.42" arrival="385.90" arrivalPos="19.02" duration="265.90" routeLength="335.01" timeLoss="28.44" maxSpeed="1.41" waitingTime="1.70"/>
    </personinfo>
    <tripinfo id="StaRosatoBalibago.2" depart="224.80" departLane="92878383#0_1" departPos="8.10" departPosLat="0.00" departSpeed="8.33" departDelay="0.00" arrival="391.80" arrivalLane="-32083237#0_1" arrivalPos="36.46" arrivalPosLat="0.00" arrivalSpeed="11.48" duration="167.00" routeLength="1358.46" waitingTime="5.00" waitingCount="2" stopTime="0.00" timeLoss="33.59" rerouteNo="1" devices="tripinfo_StaRosatoBalibago.2 routing_StaRosatoBalibago.2" vType="jeep" speedFactor="1.00" vaporized=""/>
    <personinfo id="STItoSakayan.2" depart="120.00" type="ped" speedFactor="1.08" duration="278.20" waitingTime="1.80" timeLoss="29.50" traveltime="278.20">
        <walk depart="120.00" departPos="25.00" arrival="398.20" arrivalPos="27.04" duration="278.20" routeLength="373.08" timeLoss="29.50" maxSpeed="1.50" waitingTime="1.80"/>
    </personinfo>
    <personinfo id="PalengketoTarget.0" depart="0.00" type="ped" speedFactor="1.19" duration="398.90" waitingTime="1.20" timeLoss="41.59" traveltime="398.90">
        <walk depart="0.00" departPos="25.00" arrival="398.90" arrivalPos="16.04" duration="398.90" routeLength="589.17" timeLoss="41.59" maxSpeed="1.65" waitingTime="1.20"/>
    </personinfo>
    <tripinfo id="BiñantoBalibago.1" depart="333.00" departLane="553887793#0_1" departPos="8.10" departPosLat="0.00" departSpeed="27.78" departDelay="0.00" arrival="402.30" arrivalLane="-32083237#0_1" arrivalPos="36.46" arrivalPosLat="0.00" arrivalSpeed="11.15" duration="69.30" routeLength="996.33" waitingTime="0.80" waitingCount="1" stopTime="0.00" timeLoss="29.71" rerouteNo="1" devices="tripinfo_BiñantoBalibago.1 routing_BiñantoBalibago.1" vType="jeep" speedFactor="1.00" vaporized=""/>
    <personinfo id="TargettoSakayan.0" depart="0.00" type="ped" speedFactor="1.17" duration="407.60" waitingTime="0.00" timeLoss="40.74" traveltime="407.60">
        <walk depart="0.00" departPos="25.00" arrival="407.60" arrivalPos="27.04" duration="407.60" routeLength="596.09" timeLoss="40.74" maxSpeed="1.62" waitingTime="0.00"/>
    </personinfo>
    <tripinfo id="CalambatoBalibago.3" depart="267.10" departLane="185930141#0_2" departPos="8.10" departPosLat="0.00" departSpeed="27.78" departDelay="0.00" arrival="412.30" arrivalLane="89908334_1" arrivalPos="36.84" arrivalPosLat="0.00" arrivalSpeed="8.75" duration="145.20" routeLength="908.17" waitingTime="74.90" waitingCount="1" stopTime="0.00" timeLoss="103.91" rerouteNo="1" devices="tripinfo_CalambatoBalibago.3 routing_CalambatoBalibago.3" vType="jeep" speedFactor="1.00" vaporized=""/>
    <tripinfo id="BalibagotoNuvali.1" depart="337.00" departLane="777619905_1" departPos="5.10" departPosLat="0.00" departSpeed="0.00" departDelay="0.00" arrival="413.60" arrivalLane="145507700#3_1" arrivalPos="783.31" arrivalPosLat="-0.00" arrivalSpeed="27.74" duration="76.60" routeLength="1312.87" waitingTime="0.00" waitingCount="0" stopTime="0.00" timeLoss="23.48" rerouteNo="1" devices="tripinfo_BalibagotoNuvali.1 routing_BalibagotoNuvali.1" vType="jeep" speedFactor="1.00" vaporized=""/>
    <tripinfo id="BiñantoStaRosa.1" depart="250.00" departLane="553887793#0_2" departPos="5.10" departPosLat="0.00" departSpeed="30.21" departDelay="0.00" arrival="413.80" arrivalLane="-92878383#0_1" arrivalPos="603.68" arrivalPosLat="-0.00" arrivalSpeed="9.05" duration="163.80" routeLength="1785.95" waitingTime="15.80" waitingCount="1" stopTime="0.00" timeLoss="21.93" rerouteNo="1" devices="tripinfo_BiñantoStaRosa.1 routing_BiñantoStaRosa.1" vType="car" speedFactor="1.09" vaporized=""/>
    <tripinfo id="BiñantoNuvali.0" depart="318.30" departLane="553887793#0_1" departPos="5.10" departPosLat="0.00" departSpeed="29.34" departDelay="0.00" arrival="416.90" arrivalLane="145507700#3_1" arrivalPos="783.31" arrivalPosLat="-0.00" arrivalSpeed="29.26" duration="98.60" routeLength="2083.73" waitingTime="7.70" waitingCount="1" stopTime="0.00" timeLoss="26.53" rerouteNo="1" devices="tripinfo_BiñantoNuvali.0 routing_BiñantoNuvali.0" vType="car" speedFactor="1.06" vaporized=""/>
    <personinfo id="PalengketoSTI.2" depart="120.00" type="ped" speedFactor="0.98" duration="303.70" waitingTime="1.90" timeLoss="32.69" traveltime="303.70">
        <walk depart="120.00" departPos="25.00" arrival="423.70" arrivalPos="19.02" duration="303.70" routeLength="369.14" timeLoss="32.69" maxSpeed="1.36" waitingTime="1.90"/>
    </personinfo>
    <personinfo id="PalengketoJollibee.5" depart="300.00" type="ped" speedFactor="1.01" duration="130.30" waitingTime="0.00" timeLoss="13.10" traveltime="130.30">
        <walk depart="300.00" departPos="25.00" arrival="430.30" arrivalPos="5.21" duration="130.30" routeLength="164.52" timeLoss="13.10" maxSpeed="1.40" waitingTime="0.00"/>
    </personinfo>
    <tripinfo id="CalambatoBalibago.4" depart="368.10" departLane="185930141#0_2" departPos="8.10" departPosLat="0.00" departSpeed="27.78" departDelay="0.00" arrival="432.50" arrivalLane="89908334_1" arrivalPos="36.84" arrivalPosLat="0.00" arrivalSpeed="8.86" duration="64.40" routeLength="908.17" waitingTime="0.00" waitingCount="0" stopTime="0.00" timeLoss="23.19" rerouteNo="1" devices="tripinfo_CalambatoBalibago.4 routing_CalambatoBalibago.4" vType="jeep" speedFactor="1.00" vaporized=""/>
    <tripinfo id="StaRosatoCalamba.2" depart="94.80" departLane="92878383#0_1" departPos="5.10" departPosLat="0.00" departSpeed="4.99" departDelay="0.10" arrival="440.80" arrivalLane="-185930141#0_1" arrivalPos="428.88" arrivalPosLat="-0.00" arrivalSpeed="24.71" duration="346.00" routeLength="1855.46" waitingTime="150.60" waitingCount="2" stopTime="0.00" timeLoss="178.16" rerouteNo="1" devices="tripinfo_StaRosatoCalamba.2 routing_StaRosatoCalamba.2" vType="car" speedFactor="0.89" vaporized=""/>
    <tripinfo id="StaRosatoCalamba.0" depart="77.50" departLane="92878383#0_1" departPos="8.10" departPosLat="0.00" departSpeed="8.33" departDelay="0.00" arrival="447.10" arrivalLane="-185930141#0_2" arrivalPos="428.88" arrivalPosLat="0.00" arrivalSpeed="27.72" duration="369.60" routeLength="1852.46" waitingTime="180.40" waitingCount="2" stopTime="0.00" timeLoss="220.19" rerouteNo="1" devices="tripinfo_StaRosatoCalamba.0 routing_StaRosatoCalamba.0" vType="jeep" speedFactor="1.00" vaporized=""/>
    <tripinfo id="NuvalitoCalamba.2" depart="205.50" departLane="-145507700#3_1" departPos="12.10" departPosLat="0.00" departSpeed="27.78" departDelay="0.00" arrival="447.80" arrivalLane="-185930141#0_1" arrivalPos="428.88" arrivalPosLat="-0.00" arrivalSpeed="27.77" duration="242.30" routeLength="2314.76" waitingTime="92.00" waitingCount="3" stopTime="0.00" timeLoss="157.74" rerouteNo="1" devices="tripinfo_NuvalitoCalamba.2 routing_NuvalitoCalamba.2" vType="bus" speedFactor="1.00" vaporized=""/>
    <tripinfo id="StaRosatoCalamba.1" depart="93.90" departLane="92878383#0_1" departPos="5.10" departPosLat="0.00" departSpeed="8.52" departDelay="0.00" arrival="448.40" arrivalLane="-185930141#0_2" arrivalPos="428.88" arrivalPosLat="0.00" arrivalSpeed="28.29" duration="354.50" routeLength="1855.46" waitingTime="163.30" waitingCount="2" stopTime="0.00" timeLoss="208.04" rerouteNo="1" devices="tripinfo_StaRosatoCalamba.1 routing_StaRosatoCalamba.1" vType="car" speedFactor="1.02" vaporized=""/>
    <tripinfo id="NuvalitoCalamba.1" depart="121.00" departLane="-145507700#3_1" departPos="8.10" departPosLat="0.00" departSpeed="27.78" departDelay="0.00" arrival="449.30" arrivalLane="-185930141#0_1" arrivalPos="428.88" arrivalPosLat="-0.00" arrivalSpeed="27.76" duration="328.30" routeLength="2318.76" waitingTime="191.70" waitingCount="2" stopTime="0.00" timeLoss="243.59" rerouteNo="1" devices="tripinfo_NuvalitoCalamba.1 routing_NuvalitoCalamba.1" vType="jeep" speedFactor="1.00" vaporized=""/>
    <tripinfo id="StaRosatoCalamba.3" depart="216.90" departLane="92878383#0_1" departPos="5.10" departPosLat="0.00" departSpeed="8.19" departDelay="0.00" arrival="449.60" arrivalLane="-185930141#0_2" arrivalPos="428.88" arrivalPosLat="0.00" arrivalSpeed="27.17" duration="232.70" routeLength="1855.46" waitingTime="49.60" waitingCount="1" stopTime="0.00" timeLoss="80.36" rerouteNo="1" devices="tripinfo_StaRosatoCalamba.3 routing_StaRosatoCalamba.3" vType="car" speedFactor="0.98" vaporized=""/>
    <personinfo id="JollibeetoSTI.3" depart="180.00" type="ped" speedFactor="0.99" duration="272.10" waitingTime="0.90" timeLoss="27.71" traveltime="272.10">
        <walk depart="180.00" departPos="10.42" arrival="452.10" arrivalPos="19.02" duration="272.10" routeLength="335.01" timeLoss="27.71" maxSpeed="1.37" waitingTime="0.90"/>
    </personinfo>
    <personinfo id="JollibeetoPalengke.5" depart="300.00" type="ped" speedFactor="0.83" duration="152.80" waitingTime="1.60" timeLoss="16.53" traveltime="152.80">
        <walk depart="300.00" departPos="10.42" arrival="452.80" arrivalPos="27.04" duration="152.80" routeLength="157.27" timeLoss="16.53" maxSpeed="1.15" waitingTime="1.60"/>
    </personinfo>
    <personinfo id="JollibeetoTarget.1" depart="60.00" type="ped" speedFactor="1.10" duration="406.00" waitingTime="1.40" timeLoss="43.75" traveltime="406.00">
        <walk depart="60.00" departPos="10.42" arrival="466.00" arrivalPos="16.04" duration="406.00" routeLength="555.05" timeLoss="43.75" maxSpeed="1.53" waitingTime="1.40"/>
    </personinfo>
    <personinfo id="PalengketoSTI.3" depart="180.00" type="ped" speedFactor="1.04" duration="288.60" waitingTime="2.80" timeLoss="33.73" traveltime="288.60">
        <walk depart="180.00" departPos="25.00" arrival="468.60" arrivalPos="19.02" duration="288.60" routeLength="369.14" timeLoss="33.73" maxSpeed="1.45" waitingTime="2.80"/>
    </personinfo>
    <personinfo id="JollibeetoTarget.0" depart="0.00" type="ped" speedFactor="0.94" duration="473.40" waitingTime="1.30" timeLoss="48.94" traveltime="473.40">
        <walk depart="0.00" departPos="10.42" arrival="473.40" arrivalPos="16.04" duration="473.40" routeLength="555.05" timeLoss="48.94" maxSpeed="1.31" waitingTime="1.30"/>
    </personinfo>
    <tripinfo id="BalibagotoStaRosa.1" depart="214.70" departLane="145507698_1" departPos="7.55" departPosLat="0.00" departSpeed="0.00" departDelay="0.00" arrival="479.50" arrivalLane="-92878383#0_1" arrivalPos="603.68" arrivalPosLat="-0.00" arrivalSpeed="8.30" duration="264.80" routeLength="1983.33" waitingTime="30.40" waitingCount="3" stopTime="0.00" timeLoss="76.03" rerouteNo="1" devices="tripinfo_BalibagotoStaRosa.1 routing_BalibagotoStaRosa.1" vType="jeep" speedFactor="1.00" vaporized=""/>
    <personinfo id="STItoSakayan.3" depart="180.00" type="ped" speedFactor="0.99" duration="299.90" waitingTime="0.00" timeLoss="29.36" traveltime="299.90">
        <walk depart="180.00" departPos="25.00" arrival="479.90" arrivalPos="27.04" duration="299.90" routeLength="373.08" timeLoss="29.36" maxSpeed="1.38" waitingTime="0.00"/>
    </personinfo>
    <personinfo id="JollibeetoPalengke.6" depart="360.00" type="ped" speedFactor="1.05" duration="120.80" waitingTime="0.10" timeLoss="12.52" traveltime="120.80">
        <walk depart="360.00" departPos="10.42" arrival="480.80" arrivalPos="27.04" duration="120.80" routeLength="157.27" timeLoss="12.52" maxSpeed="1.45" waitingTime="0.10"/>
    </personinfo>
    <tripinfo id="NuvalitoStaRosa.0" depart="111.10" departLane="-145507700#3_1" departPos="2.30" departPosLat="0.00" departSpeed="31.39" departDelay="0.00" arrival="481.50" arrivalLane="-92878383#0_1" arrivalPos="603.68" arrivalPosLat="-0.00" arrivalSpeed="9.40" duration="370.40" routeLength="2602.84" waitingTime="186.20" waitingCount="1" stopTime="0.00" timeLoss="206.97" rerouteNo="1" devices="tripinfo_NuvalitoStaRosa.0 routing_NuvalitoStaRosa.0" vType="tricycle" speedFactor="1.13" vaporized=""/>
    <personinfo id="TargettoSakayan.1" depart="60.00" type="ped" speedFactor="1.12" duration="426.30" waitingTime="0.90" timeLoss="43.30" traveltime="426.30">
        <walk depart="60.00" departPos="25.00" arrival="486.30" arrivalPos="27.04" duration="426.30" routeLength="596.09" timeLoss="43.30" maxSpeed="1.56" waitingTime="0.90"/>
    </personinfo>
    <tripinfo id="NuvalitoBiñan.1" depart="405.00" departLane="-145507700#3_1" departPos="2.30" departPosLat="0.00" departSpeed="30.04" departDelay="0.00" arrival="496.90" arrivalLane="-553887793#0_2" arrivalPos="201.31" arrivalPosLat="0.00" arrivalSpeed="30.02" duration="91.90" routeLength="2096.19" waitingTime="1.60" waitingCount="2" stopTime="0.00" timeLoss="20.89" rerouteNo="1" devices="tripinfo_NuvalitoBiñan.1 routing_NuvalitoBiñan.1" vType="tricycle" speedFactor="1.08" vaporized=""/>
    <personinfo id="PalengketoJollibee.6" depart="360.00" type="ped" speedFactor="0.97" duration="137.20" waitingTime="2.00" timeLoss="15.41" traveltime="137.20">
        <walk depart="360.00" departPos="25.00" arrival="497.20" arrivalPos="5.21" duration="137.20" routeLength="164.52" timeLoss="15.41" maxSpeed="1.35" waitingTime="2.00"/>
    </personinfo>
    <tripinfo id="NuvalitoStaRosa.1" depart="128.70" departLane="-145507700#3_2" departPos="5.10" departPosLat="0.00" departSpeed="26.83" departDelay="0.00" arrival="501.70" arrivalLane="-92878383#0_1" arrivalPos="603.68" arrivalPosLat="-0.00" arrivalSpeed="8.01" duration="373.00" routeLength="2600.04" waitingTime="152.40" waitingCount="2" stopTime="0.00" timeLoss="181.78" rerouteNo="1" devices="tripinfo_NuvalitoStaRosa.1 routing_NuvalitoStaRosa.1" vType="car" speedFactor="0.97" vaporized=""/>
    <personinfo id="PalengketoTarget.2" depart="120.00" type="ped" speedFactor="1.20" duration="395.20" waitingTime="2.20" timeLoss="42.26" traveltime="395.20">
        <walk depart="120.00" departPos="25.00" arrival="515.20" arrivalPos="16.04" duration="395.20" routeLength="589.17" timeLoss="42.26" maxSpeed="1.67" waitingTime="2.20"/>
    </personinfo>