<?xml version="1.0" encoding="UTF-8"?>

<!-- generated on 2026-02-23 19:17:19 by Eclipse SUMO sumo Version 1.24.0
<sumoConfiguration xmlns:xsi="http://www.w3.org/2001/XMLSchema-instance" xsi:noNamespaceSchemaLocation="http://sumo.dlr.de/xsd/sumoConfiguration.xsd">

    <input>
        <net-file value="Balibago_traci/network/balibago_signalized.net.xml"/>
        <route-files value="Balibago_traci/demand/flows_jam_traffic.rou.xml"/>
        <additional-files value="Balibago_traci/additionals/balibago.poly.xml,Balibago_traci/ additionals/balibago.add.xml"/>
    </input>

    <output>
        <tripinfo-output value="Balibago_traci/output_DQN/SD_DQN_Train_Tripinfo.xml"/>
        <statistic-output value="Balibago_traci/output_DQN/SD_DQN_Train_Stats.xml"/>
    </output>

    <time>
        <begin value="0"/>
        <end value="10800"/>
        <step-length value="0.1"/>
    </time>

    <processing>
        <lateral-resolution value="0.1"/>
        <collision.action value="none"/>
        <collision.check-junctions value="false"/>
        <collision.mingap-factor value="0"/>
    </processing>

    <report>
        <no-warnings value="true"/>
    </report>

    <traci_server>
        <remote-port value="8814"/>
    </traci_server>

    <gui_only>
        <delay value="0"/>
    </gui_only>

</sumoConfiguration>
-->

<tripinfos xmlns:xsi="http://www.w3.org/2001/XMLSchema-instance" xsi:noNamespaceSchemaLocation="http://sumo.dlr.de/xsd/tripinfo_file.xsd">
    <tripinfo id="BalibagotoNuvali.0" depart="9.20" departLane="777619905_1" departPos="5.10" departPosLat="0.00" departSpeed="0.00" departDelay="0.00" arrival="88.40" arrivalLane="145507700#3_1" arrivalPos="783.31" arrivalPosLat="-0.00" arrivalSpeed="27.76" duration="79.20" routeLength="1312.87" waitingTime="0.00" waitingCount="0" stopTime="0.00" timeLoss="26.15" rerouteNo="1" devices="tripinfo_BalibagotoNuvali.0 routing_BalibagotoNuvali.0" vType="bus" speedFactor="1.00" vaporized=""/>
    <tripinfo id="NuvalitoBiñan.0" depart="0.70" departLane="-145507700#3_1" departPos="2.30" departPosLat="0.00" departSpeed="25.95" departDelay="0.00" arrival="91.10" arrivalLane="-553887793#0_2" arrivalPos="201.31" arrivalPosLat="0.00" arrivalSpeed="25.85" duration="90.40" routeLength="2096.19" waitingTime="0.00" waitingCount="0" stopTime="0.00" timeLoss="8.22" rerouteNo="1" devices="tripinfo_NuvalitoBiñan.0 routing_NuvalitoBiñan.0" vType="tricycle" speedFactor="0.93" vaporized=""/>
    <personinfo id="JollibeetoPalengke.0" depart="0.00" type="ped" speedFactor="1.06" duration="118.90" waitingTime="0.00" timeLoss="12.07" traveltime="118.90">
        <walk depart="0.00" departPos="10.42" arrival="118.90" arrivalPos="27.04" duration="118.90" routeLength="157.27" timeLoss="12.07" maxSpeed="1.47" waitingTime="0.00"/>
    </personinfo>
    <personinfo id="PalengketoJollibee.0" depart="0.00" type="ped" speedFactor="1.07" duration="123.10" waitingTime="0.00" timeLoss="12.41" traveltime="123.10">
        <walk depart="0.00" departPos="25.00" arrival="123.10" arrivalPos="5.21" duration="123.10" routeLength="164.52" timeLoss="12.41" maxSpeed="1.49" waitingTime="0.00"/>
    </personinfo>
    <tripinfo id="NuvalitoBalibago.0" depart="8.30" departLane="-145507700#3_1" departPos="2.30" departPosLat="0.00" departSpeed="32.64" departDelay="0.00" arrival="129.40" arrivalLane="32083201#1_1" arrivalPos="58.53" arrivalPosLat="0.00" arrivalSpeed="16.22" duration="121.10" routeLength="2060.89" waitingTime="0.00" waitingCount="0" stopTime="0.00" timeLoss="30.81" rerouteNo="1" devices="tripinfo_NuvalitoBalibago.0 routing_NuvalitoBalibago.0" vType="tricycle" speedFactor="1.17" vaporized=""/>
    <personinfo id="PalengketoJollibee.1" depart="48.00" type="ped" speedFactor="0.94" duration="140.50" waitingTime="0.00" timeLoss="14.11" traveltime="140.50">
        <walk depart="48.00" departPos="25.00" arrival="188.50" arrivalPos="5.21" duration="140.50" routeLength="164.52" timeLoss="14.11" maxSpeed="1.30" waitingTime="0.00"/>
    </personinfo>
    <personinfo id="JollibeetoPalengke.1" depart="48.00" type="ped" speedFactor="0.94" duration="140.60" waitingTime="6.30" timeLoss="19.92" traveltime="140.60">
        <walk depart="48.00" departPos="10.42" arrival="188.60" arrivalPos="27.04" duration="140.60" routeLength="157.27" timeLoss="19.92" maxSpeed="1.30" waitingTime="6.30"/>
    </personinfo>
    <tripinfo id="CalambatoBalibago.0" depart="150.70" departLane="185930141#0_2" departPos="2.30" departPosLat="0.00" departSpeed="21.61" departDelay="0.00" arrival="218.20" arrivalLane="89908334_1" arrivalPos="36.84" arrivalPosLat="0.00" arrivalSpeed="10.82" duration="67.50" routeLength="913.97" waitingTime="0.00" waitingCount="0" stopTime="0.00" timeLoss="14.26" rerouteNo="1" devices="tripinfo_CalambatoBalibago.0 routing_CalambatoBalibago.0" vType="tricycle" speedFactor="0.78" vaporized=""/>
    <tripinfo id="NuvalitoCalamba.0" depart="45.30" departLane="-145507700#3_1" departPos="5.10" departPosLat="0.00" departSpeed="27.23" departDelay="0.00" arrival="219.10" arrivalLane="-185930141#0_1" arrivalPos="428.88" arrivalPosLat="-0.00" arrivalSpeed="27.16" duration="173.80" routeLength="2321.76" waitingTime="61.70" waitingCount="1" stopTime="0.00" timeLoss="87.31" rerouteNo="1" devices="tripinfo_NuvalitoCalamba.0 routing_NuvalitoCalamba.0" vType="car" speedFactor="0.98" vaporized=""/>
    <tripinfo id="BalibagotoCalamba.0" depart="40.60" departLane="145507698_1" departPos="2.30" departPosLat="0.00" departSpeed="0.63" departDelay="0.20" arrival="220.40" arrivalLane="-185930141#0_1" arrivalPos="428.88" arrivalPosLat="0.00" arrivalSpeed="28.01" duration="179.80" routeLength="1531.99" waitingTime="62.30" waitingCount="2" stopTime="0.00" timeLoss="95.89" rerouteNo="1" devices="tripinfo_BalibagotoCalamba.0 routing_BalibagotoCalamba.0" vType="tricycle" speedFactor="1.01" vaporized=""/>
    <personinfo id="JollibeetoPalengke.2" depart="96.00" type="ped" speedFactor="1.01" duration="124.70" waitingTime="0.00" timeLoss="12.63" traveltime="124.70">
        <walk depart="96.00" departPos="10.42" arrival="220.70" arrivalPos="27.04" duration="124.70" routeLength="157.27" timeLoss="12.63" maxSpeed="1.40" waitingTime="0.00"/>
    </personinfo>
    <tripinfo id="BalibagotoCalamba.1" depart="80.90" departLane="145507698_1" departPos="7.55" departPosLat="0.00" departSpeed="0.00" departDelay="0.00" arrival="227.30" arrivalLane="-185930141#0_2" arrivalPos="428.88" arrivalPosLat="0.00" arrivalSpeed="27.77" duration="146.40" routeLength="1523.59" waitingTime="13.50" waitingCount="1" stopTime="0.00" timeLoss="62.15" rerouteNo="1" devices="tripinfo_BalibagotoCalamba.1 routing_BalibagotoCalamba.1" vType="jeep" speedFactor="1.00" vaporized=""/>
    <tripinfo id="CalambatoBiñan.0" depart="32.70" departLane="185930141#0_1" departPos="8.10" departPosLat="0.00" departSpeed="27.78" departDelay="0.00" arrival="228.80" arrivalLane="-553887793#0_1" arrivalPos="201.31" arrivalPosLat="0.00" arrivalSpeed="27.73" duration="196.10" routeLength="1504.67" waitingTime="115.50" waitingCount="1" stopTime="0.00" timeLoss="141.87" rerouteNo="1" devices="tripinfo_CalambatoBiñan.0 routing_CalambatoBiñan.0" vType="jeep" speedFactor="1.00" vaporized=""/>
    <tripinfo id="BalibagotoBiñan.0" depart="37.20" departLane="145507698_1" departPos="7.55" departPosLat="0.00" departSpeed="0.00" departDelay="0.00" arrival="228.90" arrivalLane="-553887793#0_2" arrivalPos="201.31" arrivalPosLat="0.00" arrivalSpeed="27.76" duration="191.70" routeLength="1682.41" waitingTime="40.70" waitingCount="2" stopTime="0.00" timeLoss="101.53" rerouteNo="1" devices="tripinfo_BalibagotoBiñan.0 routing_BalibagotoBiñan.0" vType="jeep" speedFactor="1.00" vaporized=""/>
    <personinfo id="PalengketoJollibee.2" depart="96.00" type="ped" speedFactor="0.98" duration="134.30" waitingTime="0.00" timeLoss="13.51" traveltime="134.30">
        <walk depart="96.00" departPos="25.00" arrival="230.30" arrivalPos="5.21" duration="134.30" routeLength="164.52" timeLoss="13.51" maxSpeed="1.36" waitingTime="0.00"/>
    </personinfo>
    <tripinfo id="NuvalitoStaRosa.0" depart="56.20" departLane="-145507700#3_2" departPos="2.30" departPosLat="0.00" departSpeed="29.07" departDelay="0.00" arrival="241.30" arrivalLane="-92878383#0_1" arrivalPos="603.68" arrivalPosLat="-0.00" arrivalSpeed="8.47" duration="185.10" routeLength="2602.84" waitingTime="0.00" waitingCount="0" stopTime="0.00" timeLoss="8.47" rerouteNo="1" devices="tripinfo_NuvalitoStaRosa.0 routing_NuvalitoStaRosa.0" vType="motorcycle" speedFactor="1.05" vaporized=""/>
    <tripinfo id="BiñantoCalamba.0" depart="21.20" departLane="553887793#0_1" departPos="2.30" departPosLat="0.00" departSpeed="30.40" departDelay="0.00" arrival="244.60" arrivalLane="-185930141#0_1" arrivalPos="428.88" arrivalPosLat="0.00" arrivalSpeed="30.11" duration="223.40" routeLength="1510.47" waitingTime="166.90" waitingCount="1" stopTime="0.00" timeLoss="173.71" rerouteNo="1" devices="tripinfo_BiñantoCalamba.0 routing_BiñantoCalamba.0" vType="motorcycle" speedFactor="1.09" vaporized=""/>
    <tripinfo id="CalambatoNuvali.0" depart="49.20" departLane="185930141#0_2" departPos="5.10" departPosLat="0.00" departSpeed="26.95" departDelay="0.00" arrival="258.30" arrivalLane="145507700#3_1" arrivalPos="783.31" arrivalPosLat="-0.00" arrivalSpeed="26.95" duration="209.10" routeLength="2332.87" waitingTime="100.70" waitingCount="1" stopTime="0.00" timeLoss="120.89" rerouteNo="1" devices="tripinfo_CalambatoNuvali.0 routing_CalambatoNuvali.0" vType="car" speedFactor="0.97" vaporized=""/>
    <personinfo id="JollibeetoPalengke.3" depart="144.00" type="ped" speedFactor="1.08" duration="116.10" waitingTime="0.00" timeLoss="11.51" traveltime="116.10">
        <walk depart="144.00" departPos="10.42" arrival="260.10" arrivalPos="27.04" duration="116.10" routeLength="157.27" timeLoss="11.51" maxSpeed="1.50" waitingTime="0.00"/>
    </personinfo>
    <tripinfo id="NuvalitoStaRosa.1" depart="76.20" departLane="-145507700#3_1" departPos="5.10" departPosLat="0.00" departSpeed="29.17" departDelay="0.00" arrival="265.60" arrivalLane="-92878383#0_1" arrivalPos="603.68" arrivalPosLat="-0.00" arrivalSpeed="8.64" duration="189.40" routeLength="2600.04" waitingTime="0.00" waitingCount="0" stopTime="0.00" timeLoss="13.62" rerouteNo="1" devices="tripinfo_NuvalitoStaRosa.1 routing_NuvalitoStaRosa.1" vType="car" speedFactor="1.05" vaporized=""/>
    <personinfo id="PalengketoJollibee.3" depart="144.00" type="ped" speedFactor="1.04" duration="127.40" waitingTime="1.40" timeLoss="13.81" traveltime="127.40">
        <walk depart="144.00" departPos="25.00" arrival="271.40" arrivalPos="5.21" duration="127.40" routeLength="164.52" timeLoss="13.81" maxSpeed="1.45" waitingTime="1.40"/>
    </personinfo>
    <personinfo id="JollibeetoSTI.0" depart="0.00" type="ped" speedFactor="0.98" duration="272.80" waitingTime="0.80" timeLoss="27.89" traveltime="272.80">
        <walk depart="0.00" departPos="10.42" arrival="272.80" arrivalPos="19.02" duration="272.80" routeLength="335.01" timeLoss="27.89" maxSpeed="1.37" waitingTime="0.80"/>
    </personinfo>
    <tripinfo id="BalibagotoStaRosa.0" depart="55.40" departLane="145507698_1" departPos="7.55" departPosLat="0.00" departSpeed="0.00" departDelay="0.00" arrival="274.80" arrivalLane="-92878383#0_1" arrivalPos="603.68" arrivalPosLat="-0.00" arrivalSpeed="8.29" duration="219.40" routeLength="1983.33" waitingTime="0.00" waitingCount="0" stopTime="0.00" timeLoss="30.75" rerouteNo="1" devices="tripinfo_BalibagotoStaRosa.0 routing_BalibagotoStaRosa.0" vType="jeep" speedFactor="1.00" vaporized=""/>
    <personinfo id="STItoSakayan.0" depart="0.00" type="ped" speedFactor="1.00" duration="299.00" waitingTime="1.00" timeLoss="29.98" traveltime="299.00">
        <walk depart="0.00" departPos="25.00" arrival="299.00" arrivalPos="27.04" duration="299.00" routeLength="373.08" timeLoss="29.98" maxSpeed="1.39" waitingTime="1.00"/>
    </personinfo>
    <tripinfo id="BalibagotoBiñan.1" depart="185.50" departLane="145507698_1" departPos="7.55" departPosLat="0.00" departSpeed="0.00" departDelay="0.00" arrival="313.30" arrivalLane="-553887793#0_2" arrivalPos="201.31" arrivalPosLat="0.00" arrivalSpeed="27.74" duration="127.80" routeLength="1682.41" waitingTime="0.00" waitingCount="0" stopTime="0.00" timeLoss="37.72" rerouteNo="1" devices="tripinfo_BalibagotoBiñan.1 routing_BalibagotoBiñan.1" vType="jeep" speedFactor="1.00" vaporized=""/>
    <personinfo id="JollibeetoPalengke.4" depart="192.00" type="ped" speedFactor="1.03" duration="122.40" waitingTime="0.00" timeLoss="12.49" traveltime="122.40">
        <walk depart="192.00" departPos="10.42" arrival="314.40" arrivalPos="27.04" duration="122.40" routeLength="157.27" timeLoss="12.49" maxSpeed="1.43" waitingTime="0.00"/>
    </personinfo>
    <tripinfo id="NuvalitoStaRosa.2" depart="111.10" departLane="-145507700#3_1" departPos="7.20" departPosLat="0.00" departSpeed="27.40" departDelay="0.00" arrival="316.00" arrivalLane="-92878383#0_1" arrivalPos="603.68" arrivalPosLat="-0.00" arrivalSpeed="8.16" duration="204.90" routeLength="2597.94" waitingTime="0.00" waitingCount="0" stopTime="0.00" timeLoss="17.71" rerouteNo="1" devices="tripinfo_NuvalitoStaRosa.2 routing_NuvalitoStaRosa.2" vType="truck" speedFactor="0.99" vaporized=""/>
    <personinfo id="JollibeetoSTI.1" depart="48.00" type="ped" speedFactor="1.03" duration="268.50" waitingTime="1.70" timeLoss="34.88" traveltime="268.50">
        <walk depart="48.00" departPos="10.42" arrival="316.50" arrivalPos="19.02" duration="268.50" routeLength="335.01" timeLoss="34.88" maxSpeed="1.43" waitingTime="1.70"/>
    </personinfo>
    <personinfo id="PalengketoSTI.1" depart="48.00" type="ped" speedFactor="1.10" duration="273.10" waitingTime="1.20" timeLoss="30.47" traveltime="273.10">
        <walk depart="48.00" departPos="25.00" arrival="321.10" arrivalPos="19.02" duration="273.10" routeLength="369.14" timeLoss="30.47" maxSpeed="1.52" waitingTime="1.20"/>
    </personinfo>
    <personinfo id="PalengketoJollibee.4" depart="192.00" type="ped" speedFactor="0.98" duration="144.30" waitingTime="10.00" timeLoss="23.60" traveltime="144.30">
        <walk depart="192.00" departPos="25.00" arrival="336.30" arrivalPos="5.21" duration="144.30" routeLength="164.52" timeLoss="23.60" maxSpeed="1.36" waitingTime="10.00"/>
    </personinfo>
    <tripinfo id="StaRosatoBalibago.0" depart="5.30" departLane="92878383#0_1" departPos="2.30" departPosLat="0.00" departSpeed="8.33" departDelay="0.00" arrival="343.80" arrivalLane="-32083237#0_1" arrivalPos="36.46" arrivalPosLat="0.00" arrivalSpeed="15.58" duration="338.50" routeLength="1364.26" waitingTime="187.20" waitingCount="1" stopTime="0.00" timeLoss="204.46" rerouteNo="1" devices="tripinfo_StaRosatoBalibago.0 routing_StaRosatoBalibago.0" vType="tricycle" speedFactor="1.00" vaporized=""/>
    <tripinfo id="StaRosatoBiñan.0" depart="38.20" departLane="92878383#0_1" departPos="7.20" departPosLat="0.00" departSpeed="9.30" departDelay="0.00" arrival="346.60" arrivalLane="-553887793#0_1" arrivalPos="201.31" arrivalPosLat="-0.00" arrivalSpeed="30.97" duration="308.40" routeLength="1605.62" waitingTime="166.60" waitingCount="1" stopTime="0.00" timeLoss="182.64" rerouteNo="1" devices="tripinfo_StaRosatoBiñan.0 routing_StaRosatoBiñan.0" vType="truck" speedFactor="1.12" vaporized=""/>
    <tripinfo id="StaRosatoBiñan.1" depart="116.80" departLane="92878383#0_1" departPos="7.20" departPosLat="0.00" departSpeed="5.33" departDelay="0.80" arrival="350.30" arrivalLane="-553887793#0_1" arrivalPos="201.31" arrivalPosLat="-0.00" arrivalSpeed="27.67" duration="233.50" routeLength="1605.62" waitingTime="74.30" waitingCount="1" stopTime="0.00" timeLoss="92.65" rerouteNo="1" devices="tripinfo_StaRosatoBiñan.1 routing_StaRosatoBiñan.1" vType="truck" speedFactor="1.00" vaporized=""/>
    <tripinfo id="BalibagotoNuvali.1" depart="289.70" departLane="777619905_1" departPos="2.30" departPosLat="0.00" departSpeed="5.50" departDelay="0.00" arrival="350.80" arrivalLane="145507700#3_2" arrivalPos="783.31" arrivalPosLat="0.00" arrivalSpeed="29.72" duration="61.10" routeLength="1315.67" waitingTime="0.00" waitingCount="0" stopTime="0.00" timeLoss="11.37" rerouteNo="1" devices="tripinfo_BalibagotoNuvali.1 routing_BalibagotoNuvali.1" vType="tricycle" speedFactor="1.07" vaporized=""/>
    <tripinfo id="BiñantoStaRosa.0" depart="24.20" departLane="553887793#0_2" departPos="8.10" departPosLat="0.00" departSpeed="27.78" departDelay="0.00" arrival="354.30" arrivalLane="-92878383#0_1" arrivalPos="603.68" arrivalPosLat="-0.00" arrivalSpeed="8.30" duration="330.10" routeLength="1782.95" waitingTime="160.30" waitingCount="1" stopTime="0.00" timeLoss="175.96" rerouteNo="1" devices="tripinfo_BiñantoStaRosa.0 routing_BiñantoStaRosa.0" vType="jeep" speedFactor="1.00" vaporized=""/>
    <personinfo id="STItoSakayan.1" depart="48.00" type="ped" speedFactor="0.99" duration="309.00" waitingTime="7.20" timeLoss="38.08" traveltime="309.00">
        <walk depart="48.00" departPos="25.00" arrival="357.00" arrivalPos="27.04" duration="309.00" routeLength="373.08" timeLoss="38.08" maxSpeed="1.38" waitingTime="7.20"/>
    </personinfo>
    <personinfo id="PalengketoSTI.0" depart="0.00" type="ped" speedFactor="0.81" duration="365.40" waitingTime="1.20" timeLoss="37.80" traveltime="365.40">
        <walk depart="0.00" departPos="25.00" arrival="365.40" arrivalPos="19.02" duration="365.40" routeLength="369.14" timeLoss="37.80" maxSpeed="1.13" waitingTime="1.20"/>
    </personinfo>
    <personinfo id="JollibeetoSTI.2" depart="96.00" type="ped" speedFactor="0.98" duration="274.00" waitingTime="0.80" timeLoss="28.34" traveltime="274.00">
        <walk depart="96.00" departPos="10.42" arrival="370.00" arrivalPos="19.02" duration="274.00" routeLength="335.01" timeLoss="28.34" maxSpeed="1.36" waitingTime="0.80"/>
    </personinfo>
    <personinfo id="PalengketoSTI.2" depart="96.00" type="ped" speedFactor="1.08" duration="276.10" waitingTime="1.20" timeLoss="29.92" traveltime="276.10">
        <walk depart="96.00" departPos="25.00" arrival="372.10" arrivalPos="19.02" duration="276.10" routeLength="369.14" timeLoss="29.92" maxSpeed="1.50" waitingTime="1.20"/>
    </personinfo>
    <personinfo id="PalengketoJollibee.5" depart="240.00" type="ped" speedFactor="0.96" duration="140.10" waitingTime="2.50" timeLoss="16.24" traveltime="140.10">
        <walk depart="240.00" departPos="25.00" arrival="380.10" arrivalPos="5.21" duration="140.10" routeLength="164.52" timeLoss="16.24" maxSpeed="1.33" waitingTime="2.50"/>
    </personinfo>
    <personinfo id="STItoSakayan.2" depart="96.00" type="ped" speedFactor="1.05" duration="285.50" waitingTime="0.00" timeLoss="29.16" traveltime="285.50">
        <walk depart="96.00" departPos="25.00" arrival="381.50" arrivalPos="27.04" duration="285.50" routeLength="373.08" timeLoss="29.16" maxSpeed="1.46" waitingTime="0.00"/>
    </personinfo>
    <personinfo id="JollibeetoPalengke.5" depart="240.00" type="ped" speedFactor="0.83" duration="151.70" waitingTime="0.00" timeLoss="15.43" traveltime="151.70">
        <walk depart="240.00" departPos="10.42" arrival="391.70" arrivalPos="27.04" duration="151.70" routeLength="157.27" timeLoss="15.43" maxSpeed="1.15" waitingTime="0.00"/>
    </personinfo>
    <tripinfo id="CalambatoBalibago.1" depart="194.30" departLane="185930141#0_2" departPos="12.10" departPosLat="0.00" departSpeed="27.78" departDelay="0.00" arrival="397.50" arrivalLane="89908334_1" arrivalPos="36.84" arrivalPosLat="0.00" arrivalSpeed="8.91" duration="203.20" routeLength="904.17" waitingTime="132.90" waitingCount="1" stopTime="0.00" timeLoss="162.10" rerouteNo="1" devices="tripinfo_CalambatoBalibago.1 routing_CalambatoBalibago.1" vType="bus" speedFactor="1.00" vaporized=""/>
    <tripinfo id="NuvalitoBiñan.1" depart="271.60" departLane="-145507700#3_1" departPos="5.10" departPosLat="0.00" departSpeed="30.39" departDelay="0.00" arrival="399.60" arrivalLane="-553887793#0_2" arrivalPos="201.31" arrivalPosLat="0.00" arrivalSpeed="30.33" duration="128.00" routeLength="2093.39" waitingTime="41.20" waitingCount="1" stopTime="0.00" timeLoss="57.99" rerouteNo="1" devices="tripinfo_NuvalitoBiñan.1 routing_NuvalitoBiñan.1" vType="car" speedFactor="1.09" vaporized=""/>
    <tripinfo id="CalambatoBalibago.2" depart="238.20" departLane="185930141#0_2" departPos="2.30" departPosLat="0.00" departSpeed="31.50" departDelay="0.00" arrival="400.50" arrivalLane="89908334_1" arrivalPos="36.84" arrivalPosLat="0.00" arrivalSpeed="11.01" duration="162.30" routeLength="913.97" waitingTime="89.50" waitingCount="1" stopTime="0.00" timeLoss="125.68" rerouteNo="1" devices="tripinfo_CalambatoBalibago.2 routing_CalambatoBalibago.2" vType="tricycle" speedFactor="1.13" vaporized=""/>
    <tripinfo id="NuvalitoBiñan.2" depart="309.60" departLane="-145507700#3_2" departPos="2.30" departPosLat="0.00" departSpeed="30.57" departDelay="0.00" arrival="402.50" arrivalLane="-553887793#0_2" arrivalPos="201.31" arrivalPosLat="0.00" arrivalSpeed="30.48" duration="92.90" routeLength="2096.19" waitingTime="2.70" waitingCount="1" stopTime="0.00" timeLoss="23.14" rerouteNo="1" devices="tripinfo_NuvalitoBiñan.2 routing_NuvalitoBiñan.2" vType="tricycle" speedFactor="1.10" vaporized=""/>
    <tripinfo id="CalambatoBalibago.3" depart="267.10" departLane="185930141#0_2" departPos="8.10" departPosLat="0.00" departSpeed="27.78" departDelay="0.00" arrival="404.60" arrivalLane="89908334_1" arrivalPos="36.84" arrivalPosLat="0.00" arrivalSpeed="8.75" duration="137.50" routeLength="908.17" waitingTime="57.40" waitingCount="1" stopTime="0.00" timeLoss="96.17" rerouteNo="1" devices="tripinfo_CalambatoBalibago.3 routing_CalambatoBalibago.3" vType="jeep" speedFactor="1.00" vaporized=""/>
    <tripinfo id="StaRosatoNuvali.0" depart="193.30" departLane="92878383#0_1" departPos="8.10" departPosLat="0.00" departSpeed="8.33" departDelay="0.00" arrival="404.70" arrivalLane="145507700#3_1" arrivalPos="783.31" arrivalPosLat="0.00" arrivalSpeed="27.73" duration="211.40" routeLength="2442.86" waitingTime="6.40" waitingCount="2" stopTime="0.00" timeLoss="41.59" rerouteNo="1" devices="tripinfo_StaRosatoNuvali.0 routing_StaRosatoNuvali.0" vType="jeep" speedFactor="1.00" vaporized=""/>
    <personinfo id="TargettoSakayan.0" depart="0.00" type="ped" speedFactor="1.18" duration="405.40" waitingTime="0.60" timeLoss="41.13" traveltime="405.40">
        <walk depart="0.00" departPos="25.00" arrival="405.40" arrivalPos="27.04" duration="405.40" routeLength="596.09" timeLoss="41.13" maxSpeed="1.64" waitingTime="0.60"/>
    </personinfo>
    <personinfo id="JollibeetoPalengke.6" depart="288.00" type="ped" speedFactor="1.05" duration="119.90" waitingTime="0.00" timeLoss="11.62" traveltime="119.90">
        <walk depart="288.00" departPos="10.42" arrival="407.90" arrivalPos="27.04" duration="119.90" routeLength="157.27" timeLoss="11.62" maxSpeed="1.45" waitingTime="0.00"/>
    </personinfo>
    <personinfo id="JollibeetoSTI.3" depart="144.00" type="ped" speedFactor="1.01" duration="267.30" waitingTime="0.80" timeLoss="27.84" traveltime="267.30">
        <walk depart="144.00" departPos="10.42" arrival="411.30" arrivalPos="19.02" duration="267.30" routeLength="335.01" timeLoss="27.84" maxSpeed="1.40" waitingTime="0.80"/>
    </personinfo>
    <personinfo id="PalengketoJollibee.6" depart="288.00" type="ped" speedFactor="1.06" duration="124.30" waitingTime="0.00" timeLoss="12.24" traveltime="124.30">
        <walk depart="288.00" departPos="25.00" arrival="412.30" arrivalPos="5.21" duration="124.30" routeLength="164.52" timeLoss="12.24" maxSpeed="1.47" waitingTime="0.00"/>
    </personinfo>
    <tripinfo id="BalibagotoNuvali.2" depart="337.00" departLane="777619905_1" departPos="5.10" departPosLat="0.00" departSpeed="0.00" departDelay="0.00" arrival="414.00" arrivalLane="145507700#3_1" arrivalPos="783.31" arrivalPosLat="-0.00" arrivalSpeed="27.77" duration="77.00" routeLength="1312.87" waitingTime="0.00" waitingCount="0" stopTime="0.00" timeLoss="23.94" rerouteNo="1" devices="tripinfo_BalibagotoNuvali.2 routing_BalibagotoNuvali.2" vType="jeep" speedFactor="1.00" vaporized=""/>
    <tripinfo id="BiñantoStaRosa.1" depart="250.00" departLane="553887793#0_2" departPos="5.10" departPosLat="0.00" departSpeed="26.77" departDelay="0.00" arrival="417.70" arrivalLane="-92878383#0_1" arrivalPos="603.68" arrivalPosLat="-0.00" arrivalSpeed="8.01" duration="167.70" routeLength="1785.95" waitingTime="2.00" waitingCount="1" stopTime="0.00" timeLoss="7.74" rerouteNo="1" devices="tripinfo_BiñantoStaRosa.1 routing_BiñantoStaRosa.1" vType="car" speedFactor="0.96" vaporized=""/>
    <tripinfo id="StaRosatoBalibago.1" depart="76.60" departLane="92878383#0_1" departPos="8.10" departPosLat="0.00" departSpeed="8.33" departDelay="0.00" arrival="419.80" arrivalLane="-32083237#0_1" arrivalPos="36.46" arrivalPosLat="0.00" arrivalSpeed="11.50" duration="343.20" routeLength="1358.46" waitingTime="169.50" waitingCount="4" stopTime="0.00" timeLoss="209.80" rerouteNo="1" devices="tripinfo_StaRosatoBalibago.1 routing_StaRosatoBalibago.1" vType="jeep" speedFactor="1.00" vaporized=""/>
    <tripinfo id="StaRosatoBalibago.2" depart="78.30" departLane="92878383#0_1" departPos="2.30" departPosLat="0.00" departSpeed="2.33" departDelay="0.40" arrival="421.50" arrivalLane="-32083237#0_1" arrivalPos="36.46" arrivalPosLat="0.00" arrivalSpeed="13.38" duration="343.20" routeLength="1364.26" waitingTime="149.30" waitingCount="4" stopTime="0.00" timeLoss="203.04" rerouteNo="1" devices="tripinfo_StaRosatoBalibago.2 routing_StaRosatoBalibago.2" vType="tricycle" speedFactor="0.96" vaporized=""/>
    <tripinfo id="NuvalitoBiñan.3" depart="341.80" departLane="-145507700#3_1" departPos="5.10" departPosLat="0.00" departSpeed="30.77" departDelay="0.00" arrival="422.60" arrivalLane="-553887793#0_2" arrivalPos="201.31" arrivalPosLat="0.00" arrivalSpeed="30.71" duration="80.80" routeLength="2093.39" waitingTime="0.00" waitingCount="0" stopTime="0.00" timeLoss="11.62" rerouteNo="1" devices="tripinfo_NuvalitoBiñan.3 routing_NuvalitoBiñan.3" vType="car" speedFactor="1.11" vaporized=""/>
    <tripinfo id="CalambatoBalibago.4" depart="368.10" departLane="185930141#0_2" departPos="2.30" departPosLat="0.00" departSpeed="29.04" departDelay="0.00" arrival="423.20" arrivalLane="89908334_1" arrivalPos="36.84" arrivalPosLat="0.00" arrivalSpeed="11.46" duration="55.10" routeLength="913.97" waitingTime="0.00" waitingCount="0" stopTime="0.00" timeLoss="15.44" rerouteNo="1" devices="tripinfo_CalambatoBalibago.4 routing_CalambatoBalibago.4" vType="tricycle" speedFactor="1.05" vaporized=""/>
    <tripinfo id="StaRosatoCalamba.0" depart="77.50" departLane="92878383#0_1" departPos="2.30" departPosLat="0.00" departSpeed="6.19" departDelay="0.00" arrival="429.60" arrivalLane="-185930141#0_2" arrivalPos="428.88" arrivalPosLat="0.00" arrivalSpeed="28.65" duration="352.10" routeLength="1858.26" waitingTime="184.40" waitingCount="2" stopTime="0.00" timeLoss="207.12" rerouteNo="1" devices="tripinfo_StaRosatoCalamba.0 routing_StaRosatoCalamba.0" vType="motorcycle" speedFactor="1.03" vaporized=""/>
    <tripinfo id="StaRosatoCalamba.1" depart="93.90" departLane="92878383#0_1" departPos="2.30" departPosLat="0.00" departSpeed="8.24" departDelay="0.00" arrival="430.30" arrivalLane="-185930141#0_2" arrivalPos="428.88" arrivalPosLat="-1.12" arrivalSpeed="27.20" duration="336.40" routeLength="1858.26" waitingTime="160.90" waitingCount="2" stopTime="0.00" timeLoss="184.75" rerouteNo="1" devices="tripinfo_StaRosatoCalamba.1 routing_StaRosatoCalamba.1" vType="motorcycle" speedFactor="0.99" vaporized=""/>
    <tripinfo id="StaRosatoNuvali.1" depart="235.40" departLane="92878383#0_1" departPos="5.10" departPosLat="0.00" departSpeed="8.30" departDelay="0.00" arrival="430.90" arrivalLane="145507700#3_1" arrivalPos="783.31" arrivalPosLat="0.00" arrivalSpeed="27.59" duration="195.50" routeLength="2445.86" waitingTime="9.90" waitingCount="1" stopTime="0.00" timeLoss="24.91" rerouteNo="1" devices="tripinfo_StaRosatoNuvali.1 routing_StaRosatoNuvali.1" vType="car" speedFactor="1.00" vaporized=""/>
    <tripinfo id="StaRosatoCalamba.2" depart="94.90" departLane="92878383#0_1" departPos="5.10" departPosLat="0.00" departSpeed="2.79" departDelay="0.20" arrival="433.90" arrivalLane="-185930141#0_2" arrivalPos="428.88" arrivalPosLat="0.00" arrivalSpeed="28.66" duration="339.00" routeLength="1855.46" waitingTime="152.60" waitingCount="2" stopTime="0.00" timeLoss="194.11" rerouteNo="1" devices="tripinfo_StaRosatoCalamba.2 routing_StaRosatoCalamba.2" vType="car" speedFactor="1.03" vaporized=""/>
    <tripinfo id="StaRosatoCalamba.3" depart="216.90" departLane="92878383#0_1" departPos="5.10" departPosLat="0.00" departSpeed="9.33" departDelay="0.00" arrival="435.10" arrivalLane="-185930141#0_2" arrivalPos="428.88" arrivalPosLat="0.00" arrivalSpeed="30.74" duration="218.20" routeLength="1855.46" waitingTime="54.50" waitingCount="1" stopTime="0.00" timeLoss="84.47" rerouteNo="1" devices="tripinfo_StaRosatoCalamba.3 routing_StaRosatoCalamba.3" vType="car" speedFactor="1.12" vaporized=""/>
    <tripinfo id="BiñantoCalamba.1" depart="178.20" departLane="553887793#0_1" departPos="2.30" departPosLat="0.00" departSpeed="20.90" departDelay="0.00" arrival="436.30" arrivalLane="-185930141#0_1" arrivalPos="428.88" arrivalPosLat="-0.00" arrivalSpeed="20.89" duration="258.10" routeLength="1510.47" waitingTime="168.30" waitingCount="1" stopTime="0.00" timeLoss="185.81" rerouteNo="1" devices="tripinfo_BiñantoCalamba.1 routing_BiñantoCalamba.1" vType="motorcycle" speedFactor="0.75" vaporized=""/>