<?xml version="1.0" encoding="UTF-8"?>

<!-- generated on 2026-02-26 01:53:56 by Eclipse SUMO sumo Version 1.24.0
<sumoConfiguration xmlns:xsi="http://www.w3.org/2001/XMLSchema-instance" xsi:noNamespaceSchemaLocation="http://sumo.dlr.de/xsd/sumoConfiguration.xsd">

    <input>
        <net-file value="Olivarez_traci\network/baseline.net.xml"/>
        <route-files value="Olivarez_traci\demand\flows_normal_traffic.rou.xml"/>
        <additional-files value="Olivarez_traci\additionals/map.poly.xml,Olivarez_traci\ additionals/detectors.add.xml"/>
    </input>

    <output>
        <tripinfo-output value="Olivarez_traci\output_NoDRL\BP_NoDRL_Normal_trips.xml"/>
        <statistic-output value="Olivarez_traci\output_NoDRL\BP_NoDRL_Normal_stats.xml"/>
    </output>

    <time>
        <begin value="0"/>
        <end value="10800"/>
        <step-length value="0.1"/>
    </time>

    <processing>
        <lateral-resolution value="0.1"/>
        <collision.action value="none"/>
        <collision.check-junctions value="false"/>
        <collision.mingap-factor value="0"/>
    </processing>

    <report>
        <no-warnings value="true"/>
    </report>

    <traci_server>
        <remote-port value="58708"/>
    </traci_server>

    <gui_only>
        <delay value="0"/>
    </gui_only>

</sumoConfiguration>
-->

<tripinfos xmlns:xsi="http://www.w3.org/2001/XMLSchema-instance" xsi:noNamespaceSchemaLocation="http://sumo.dlr.de/xsd/tripinfo_file.xsd">
    <personinfo id="pf_2.0" depart="0.00" type="ped" speedFactor="1.03" duration="23.90" waitingTime="0.00" timeLoss="2.52" traveltime="23.90">
        <walk depart="0.00" departPos="15.09" arrival="23.90" arrivalPos="3.44" duration="23.90" routeLength="30.72" timeLoss="2.52" maxSpeed="1.44" waitingTime="0.00"/>
    </personinfo>
    <tripinfo id="D3_1.0" depart="15.30" departLane="140483224#1_2" departPos="5.10" departPosLat="0.00" departSpeed="27.91" departDelay="0.00" arrival="59.20" arrivalLane="-440471861#0_2" arrivalPos="31.52" arrivalPosLat="0.00" arrivalSpeed="27.86" duration="43.90" routeLength="1067.97" waitingTime="0.00" waitingCount="0" stopTime="0.00" timeLoss="4.08" rerouteNo="1" devices="tripinfo_D3_1.0 routing_D3_1.0" vType="car" speedFactor="1.00" vaporized=""/>
    <personinfo id="pf_2.1" depart="45.00" type="ped" speedFactor="1.00" duration="24.50" waitingTime="0.00" timeLoss="2.34" traveltime="24.50">
        <walk depart="45.00" departPos="15.09" arrival="69.50" arrivalPos="3.44" duration="24.50" routeLength="30.72" timeLoss="2.34" maxSpeed="1.39" waitingTime="0.00"/>
    </personinfo>
    <tripinfo id="D1_1.0" depart="1.20" departLane="140483224#1_1" departPos="5.10" departPosLat="0.00" departSpeed="23.74" departDelay="0.00" arrival="84.70" arrivalLane="-793339796#2_2" arrivalPos="82.50" arrivalPosLat="0.00" arrivalSpeed="23.63" duration="83.50" routeLength="1648.38" waitingTime="0.00" waitingCount="0" stopTime="0.00" timeLoss="11.21" rerouteNo="1" devices="tripinfo_D1_1.0 routing_D1_1.0" vType="car" speedFactor="0.85" vaporized=""/>
    <tripinfo id="A2_1.0" depart="8.90" departLane="-793339796#2_1" departPos="2.30" departPosLat="0.00" departSpeed="27.90" departDelay="0.00" arrival="102.60" arrivalLane="-440471861#0_1" arrivalPos="31.52" arrivalPosLat="-0.00" arrivalSpeed="27.85" duration="93.70" routeLength="1084.07" waitingTime="50.40" waitingCount="1" stopTime="0.00" timeLoss="54.77" rerouteNo="1" devices="tripinfo_A2_1.0 routing_A2_1.0" vType="motorcycle" speedFactor="1.00" vaporized=""/>
    <tripinfo id="A2_1.1" depart="16.40" departLane="-793339796#2_1" departPos="5.10" departPosLat="0.00" departSpeed="26.58" departDelay="0.00" arrival="107.40" arrivalLane="-440471861#0_2" arrivalPos="31.52" arrivalPosLat="0.00" arrivalSpeed="26.55" duration="91.00" routeLength="1081.27" waitingTime="40.20" waitingCount="1" stopTime="0.00" timeLoss="50.27" rerouteNo="1" devices="tripinfo_A2_1.1 routing_A2_1.1" vType="car" speedFactor="0.96" vaporized=""/>
    <personinfo id="pf_2.2" depart="90.00" type="ped" speedFactor="1.02" duration="27.10" waitingTime="2.90" timeLoss="5.35" traveltime="27.10">
        <walk depart="90.00" departPos="15.09" arrival="117.10" arrivalPos="3.44" duration="27.10" routeLength="30.72" timeLoss="5.35" maxSpeed="1.41" waitingTime="2.90"/>
    </personinfo>
    <personinfo id="pf_4.0" depart="0.00" type="ped" speedFactor="0.95" duration="124.50" waitingTime="0.00" timeLoss="12.20" traveltime="124.50">
        <walk depart="0.00" departPos="25.00" arrival="60.60" arrivalPos="29.11" duration="60.60" routeLength="72.15" timeLoss="5.98" maxSpeed="1.32" waitingTime="0.00"/>
        <walk depart="60.60" departPos="29.11" arrival="124.50" arrivalPos="29.05" duration="63.90" routeLength="76.20" timeLoss="6.22" maxSpeed="1.32" waitingTime="0.00"/>
    </personinfo>
    <personinfo id="pf_2.3" depart="135.00" type="ped" speedFactor="0.97" duration="25.40" waitingTime="0.00" timeLoss="2.53" traveltime="25.40">
        <walk depart="135.00" departPos="15.09" arrival="160.40" arrivalPos="3.44" duration="25.40" routeLength="30.72" timeLoss="2.53" maxSpeed="1.34" waitingTime="0.00"/>
    </personinfo>
    <personinfo id="pf_4.1" depart="45.00" type="ped" speedFactor="1.01" duration="117.00" waitingTime="0.00" timeLoss="11.55" traveltime="117.00">
        <walk depart="45.00" departPos="25.00" arrival="101.80" arrivalPos="29.11" duration="56.80" routeLength="72.15" timeLoss="5.51" maxSpeed="1.41" waitingTime="0.00"/>
        <walk depart="101.80" departPos="29.11" arrival="162.00" arrivalPos="29.05" duration="60.20" routeLength="76.20" timeLoss="6.04" maxSpeed="1.41" waitingTime="0.00"/>
    </personinfo>
    <tripinfo id="D1_1.1" depart="74.50" departLane="140483224#1_1" departPos="8.10" departPosLat="0.00" departSpeed="27.78" departDelay="0.00" arrival="164.60" arrivalLane="-793339796#2_2" arrivalPos="82.50" arrivalPosLat="0.00" arrivalSpeed="24.41" duration="90.10" routeLength="1645.38" waitingTime="0.00" waitingCount="0" stopTime="0.00" timeLoss="28.55" rerouteNo="1" devices="tripinfo_D1_1.1 routing_D1_1.1" vType="jeep" speedFactor="1.00" vaporized=""/>
    <tripinfo id="D1_1.2" depart="92.30" departLane="140483224#1_1" departPos="5.10" departPosLat="0.00" departSpeed="26.79" departDelay="0.00" arrival="169.10" arrivalLane="-793339796#2_2" arrivalPos="82.50" arrivalPosLat="0.00" arrivalSpeed="26.69" duration="76.80" routeLength="1648.38" waitingTime="0.00" waitingCount="0" stopTime="0.00" timeLoss="12.80" rerouteNo="1" devices="tripinfo_D1_1.2 routing_D1_1.2" vType="car" speedFactor="0.96" vaporized=""/>
    <tripinfo id="B2_1.0" depart="62.00" departLane="-361257727#0_1" departPos="5.10" departPosLat="0.00" departSpeed="7.79" departDelay="0.00" arrival="192.50" arrivalLane="-440471861#0_1" arrivalPos="31.52" arrivalPosLat="-0.00" arrivalSpeed="25.92" duration="130.50" routeLength="1397.68" waitingTime="0.00" waitingCount="0" stopTime="0.00" timeLoss="5.33" rerouteNo="1" devices="tripinfo_B2_1.0 routing_B2_1.0" vType="car" speedFactor="0.93" vaporized=""/>
    <personinfo id="pf_2.4" depart="180.00" type="ped" speedFactor="1.15" duration="21.50" waitingTime="0.00" timeLoss="2.23" traveltime="21.50">
        <walk depart="180.00" departPos="15.09" arrival="201.50" arrivalPos="3.44" duration="21.50" routeLength="30.72" timeLoss="2.23" maxSpeed="1.59" waitingTime="0.00"/>
    </personinfo>
    <tripinfo id="C1_1.0" depart="35.30" departLane="440471861#0_1" departPos="5.10" departPosLat="0.00" departSpeed="28.06" departDelay="0.00" arrival="211.40" arrivalLane="-793339796#2_1" arrivalPos="82.50" arrivalPosLat="-0.00" arrivalSpeed="28.04" duration="176.10" routeLength="1653.99" waitingTime="97.70" waitingCount="1" stopTime="0.00" timeLoss="116.09" rerouteNo="1" devices="tripinfo_C1_1.0 routing_C1_1.0" vType="car" speedFactor="1.01" vaporized=""/>
    <personinfo id="pf_4.2" depart="90.00" type="ped" speedFactor="0.97" duration="125.90" waitingTime="3.60" timeLoss="15.78" traveltime="125.90">
        <walk depart="90.00" departPos="25.00" arrival="149.60" arrivalPos="29.11" duration="59.60" routeLength="72.15" timeLoss="6.04" maxSpeed="1.35" waitingTime="0.00"/>
        <walk depart="149.60" departPos="29.11" arrival="215.90" arrivalPos="29.05" duration="66.30" routeLength="76.20" timeLoss="9.73" maxSpeed="1.35" waitingTime="3.60"/>
    </personinfo>
    <tripinfo id="C3_1.0" depart="22.80" departLane="440471861#0_1" departPos="8.10" departPosLat="0.00" departSpeed="27.78" departDelay="0.00" arrival="224.80" arrivalLane="-140483224#1_2" arrivalPos="64.04" arrivalPosLat="0.00" arrivalSpeed="27.77" duration="202.00" routeLength="1049.78" waitingTime="145.30" waitingCount="1" stopTime="0.00" timeLoss="162.82" rerouteNo="1" devices="tripinfo_C3_1.0 routing_C3_1.0" vType="jeep" speedFactor="1.00" vaporized=""/>
    <tripinfo id="C3_1.1" depart="87.10" departLane="440471861#0_1" departPos="12.10" departPosLat="0.00" departSpeed="27.78" departDelay="0.00" arrival="226.20" arrivalLane="-140483224#1_2" arrivalPos="64.04" arrivalPosLat="0.00" arrivalSpeed="27.74" duration="139.10" routeLength="1045.78" waitingTime="69.50" waitingCount="2" stopTime="0.00" timeLoss="100.14" rerouteNo="1" devices="tripinfo_C3_1.1 routing_C3_1.1" vType="bus" speedFactor="1.00" vaporized=""/>
    <tripinfo id="C3_1.2" depart="156.50" departLane="440471861#0_1" departPos="8.10" departPosLat="0.00" departSpeed="27.78" departDelay="0.00" arrival="227.70" arrivalLane="-140483224#1_2" arrivalPos="64.04" arrivalPosLat="0.00" arrivalSpeed="27.78" duration="71.20" routeLength="1049.78" waitingTime="8.90" waitingCount="1" stopTime="0.00" timeLoss="32.02" rerouteNo="1" devices="tripinfo_C3_1.2 routing_C3_1.2" vType="jeep" speedFactor="1.00" vaporized=""/>
    <tripinfo id="C2_1.0" depart="40.30" departLane="440471861#0_2" departPos="2.30" departPosLat="0.00" departSpeed="27.09" departDelay="0.00" arrival="229.40" arrivalLane="-145894807#0_1" arrivalPos="260.95" arrivalPosLat="0.00" arrivalSpeed="8.07" duration="189.10" routeLength="1084.86" waitingTime="90.60" waitingCount="1" stopTime="0.00" timeLoss="101.52" rerouteNo="1" devices="tripinfo_C2_1.0 routing_C2_1.0" vType="tricycle" speedFactor="0.98" vaporized=""/>
    <tripinfo id="C1_1.2" depart="82.10" departLane="440471861#0_1" departPos="8.10" departPosLat="0.00" departSpeed="27.78" departDelay="0.00" arrival="231.70" arrivalLane="-793339796#2_1" arrivalPos="82.50" arrivalPosLat="-0.00" arrivalSpeed="7.70" duration="149.60" routeLength="1650.99" waitingTime="47.60" waitingCount="1" stopTime="0.00" timeLoss="89.12" rerouteNo="1" devices="tripinfo_C1_1.2 routing_C1_1.2" vType="jeep" speedFactor="1.00" vaporized=""/>
    <tripinfo id="C1_1.3" depart="142.00" departLane="440471861#0_1" departPos="8.10" departPosLat="0.00" departSpeed="27.78" departDelay="0.00" arrival="231.80" arrivalLane="-793339796#2_2" arrivalPos="82.50" arrivalPosLat="0.00" arrivalSpeed="24.56" duration="89.80" routeLength="1650.99" waitingTime="0.00" waitingCount="0" stopTime="0.00" timeLoss="29.26" rerouteNo="1" devices="tripinfo_C1_1.3 routing_C1_1.3" vType="jeep" speedFactor="1.00" vaporized=""/>
    <tripinfo id="B1_1.0" depart="75.60" departLane="-361257727#0_1" departPos="5.10" departPosLat="0.00" departSpeed="8.25" departDelay="0.00" arrival="233.00" arrivalLane="-793339796#2_2" arrivalPos="82.50" arrivalPosLat="0.00" arrivalSpeed="26.05" duration="157.40" routeLength="1915.44" waitingTime="0.00" waitingCount="0" stopTime="0.00" timeLoss="21.52" rerouteNo="1" devices="tripinfo_B1_1.0 routing_B1_1.0" vType="car" speedFactor="0.99" vaporized=""/>
    <personinfo id="pf_1.0" depart="0.00" type="ped" speedFactor="1.06" duration="235.30" waitingTime="0.00" timeLoss="23.60" traveltime="235.30">
        <walk depart="0.00" departPos="25.00" arrival="235.30" arrivalPos="3.44" duration="235.30" routeLength="311.67" timeLoss="23.60" maxSpeed="1.47" waitingTime="0.00"/>
    </personinfo>
    <tripinfo id="C1_1.1" depart="63.70" departLane="440471861#0_1" departPos="12.10" departPosLat="0.00" departSpeed="27.78" departDelay="0.00" arrival="240.70" arrivalLane="-793339796#2_1" arrivalPos="82.50" arrivalPosLat="-0.00" arrivalSpeed="24.43" duration="177.00" routeLength="1646.99" waitingTime="78.00" waitingCount="1" stopTime="0.00" timeLoss="116.61" rerouteNo="1" devices="tripinfo_C1_1.1 routing_C1_1.1" vType="bus" speedFactor="1.00" vaporized=""/>
    <personinfo id="pf_2.5" depart="225.00" type="ped" speedFactor="0.98" duration="28.20" waitingTime="2.80" timeLoss="5.53" traveltime="28.20">
        <walk depart="225.00" departPos="15.09" arrival="253.20" arrivalPos="3.44" duration="28.20" routeLength="30.72" timeLoss="5.53" maxSpeed="1.36" waitingTime="2.80"/>
    </personinfo>
    <personinfo id="pf_4.3" depart="135.00" type="ped" speedFactor="0.99" duration="119.90" waitingTime="0.00" timeLoss="11.98" traveltime="119.90">
        <walk depart="135.00" departPos="25.00" arrival="193.40" arrivalPos="29.11" duration="58.40" routeLength="72.15" timeLoss="5.91" maxSpeed="1.37" waitingTime="0.00"/>
        <walk depart="193.40" departPos="29.11" arrival="254.90" arrivalPos="29.05" duration="61.50" routeLength="76.20" timeLoss="6.07" maxSpeed="1.37" waitingTime="0.00"/>
    </personinfo>
    <tripinfo id="A1_1.0" depart="157.90" departLane="-793339796#2_1" departPos="2.30" departPosLat="0.00" departSpeed="26.36" departDelay="0.00" arrival="255.10" arrivalLane="-145894807#0_1" arrivalPos="260.95" arrivalPosLat="0.00" arrivalSpeed="7.67" duration="97.20" routeLength="1059.52" waitingTime="0.00" waitingCount="0" stopTime="0.00" timeLoss="2.79" rerouteNo="1" devices="tripinfo_A1_1.0 routing_A1_1.0" vType="motorcycle" speedFactor="0.95" vaporized=""/>
    <tripinfo id="B2_1.1" depart="129.20" departLane="-361257727#0_1" departPos="8.10" departPosLat="0.00" departSpeed="8.33" departDelay="0.00" arrival="256.80" arrivalLane="-440471861#0_1" arrivalPos="31.52" arrivalPosLat="-0.00" arrivalSpeed="27.77" duration="127.60" routeLength="1394.68" waitingTime="0.00" waitingCount="0" stopTime="0.00" timeLoss="10.98" rerouteNo="1" devices="tripinfo_B2_1.1 routing_B2_1.1" vType="jeep" speedFactor="1.00" vaporized=""/>
    <tripinfo id="D3_1.1" depart="201.70" departLane="140483224#1_2" departPos="5.10" departPosLat="0.00" departSpeed="22.64" departDelay="0.00" arrival="280.30" arrivalLane="-440471861#0_2" arrivalPos="31.52" arrivalPosLat="0.00" arrivalSpeed="22.62" duration="78.60" routeLength="1067.97" waitingTime="22.50" waitingCount="1" stopTime="0.00" timeLoss="29.48" rerouteNo="1" devices="tripinfo_D3_1.1 routing_D3_1.1" vType="car" speedFactor="0.82" vaporized=""/>
    <tripinfo id="D3_1.2" depart="206.80" departLane="140483224#1_2" departPos="5.10" departPosLat="0.00" departSpeed="29.15" departDelay="0.00" arrival="281.50" arrivalLane="-440471861#0_2" arrivalPos="31.52" arrivalPosLat="0.00" arrivalSpeed="24.71" duration="74.70" routeLength="1067.97" waitingTime="21.30" waitingCount="1" stopTime="0.00" timeLoss="36.61" rerouteNo="1" devices="tripinfo_D3_1.2 routing_D3_1.2" vType="car" speedFactor="1.05" vaporized=""/>
    <tripinfo id="D3_1.3" depart="212.70" departLane="140483224#1_2" departPos="8.10" departPosLat="0.00" departSpeed="27.78" departDelay="0.00" arrival="286.10" arrivalLane="-440471861#0_2" arrivalPos="31.52" arrivalPosLat="0.00" arrivalSpeed="27.74" duration="73.40" routeLength="1064.97" waitingTime="16.00" waitingCount="1" stopTime="0.00" timeLoss="33.45" rerouteNo="1" devices="tripinfo_D3_1.3 routing_D3_1.3" vType="jeep" speedFactor="1.00" vaporized=""/>
    <tripinfo id="B2_1.2" depart="150.30" departLane="-361257727#0_1" departPos="2.30" departPosLat="0.00" departSpeed="7.32" departDelay="0.00" arrival="289.50" arrivalLane="-440471861#0_1" arrivalPos="31.52" arrivalPosLat="-0.00" arrivalSpeed="24.33" duration="139.20" routeLength="1400.48" waitingTime="0.00" waitingCount="0" stopTime="0.00" timeLoss="5.59" rerouteNo="1" devices="tripinfo_B2_1.2 routing_B2_1.2" vType="tricycle" speedFactor="0.88" vaporized=""/>
    <tripinfo id="D1_1.3" depart="117.10" departLane="140483224#1_1" departPos="7.20" departPosLat="0.00" departSpeed="25.89" departDelay="0.00" arrival="291.40" arrivalLane="-793339796#2_2" arrivalPos="82.50" arrivalPosLat="0.00" arrivalSpeed="25.24" duration="174.30" routeLength="1646.28" waitingTime="79.70" waitingCount="1" stopTime="0.00" timeLoss="108.17" rerouteNo="1" devices="tripinfo_D1_1.3 routing_D1_1.3" vType="truck" speedFactor="0.93" vaporized=""/>
    <tripinfo id="D2_1.0" depart="93.70" departLane="140483224#1_2" departPos="7.20" departPosLat="0.00" departSpeed="28.45" departDelay="0.00" arrival="291.60" arrivalLane="-145894807#0_1" arrivalPos="260.95" arrivalPosLat="-0.00" arrivalSpeed="8.53" duration="197.90" routeLength="1090.66" waitingTime="102.40" waitingCount="1" stopTime="0.00" timeLoss="114.62" rerouteNo="1" devices="tripinfo_D2_1.0 routing_D2_1.0" vType="truck" speedFactor="1.02" vaporized=""/>
    <personinfo id="pf_2.6" depart="270.00" type="ped" speedFactor="1.00" duration="24.60" waitingTime="0.00" timeLoss="2.52" traveltime="24.60">
        <walk depart="270.00" departPos="15.09" arrival="294.60" arrivalPos="3.44" duration="24.60" routeLength="30.72" timeLoss="2.52" maxSpeed="1.39" waitingTime="0.00"/>
    </personinfo>
    <personinfo id="pf_4.4" depart="180.00" type="ped" speedFactor="1.02" duration="115.70" waitingTime="0.00" timeLoss="11.39" traveltime="115.70">
        <walk depart="180.00" departPos="25.00" arrival="236.30" arrivalPos="29.11" duration="56.30" routeLength="72.15" timeLoss="5.57" maxSpeed="1.42" waitingTime="0.00"/>
        <walk depart="236.30" departPos="29.11" arrival="295.70" arrivalPos="29.05" duration="59.40" routeLength="76.20" timeLoss="5.82" maxSpeed="1.42" waitingTime="0.00"/>
    </personinfo>
    <tripinfo id="D2_1.1" depart="134.80" departLane="140483224#1_1" departPos="8.10" departPosLat="0.00" departSpeed="27.78" departDelay="0.00" arrival="297.30" arrivalLane="-145894807#0_1" arrivalPos="260.95" arrivalPosLat="0.00" arrivalSpeed="8.31" duration="162.50" routeLength="1089.76" waitingTime="63.80" waitingCount="1" stopTime="0.00" timeLoss="77.31" rerouteNo="1" devices="tripinfo_D2_1.1 routing_D2_1.1" vType="jeep" speedFactor="1.00" vaporized=""/>
    <tripinfo id="D2_1.2" depart="185.20" departLane="140483224#1_1" departPos="5.10" departPosLat="0.00" departSpeed="28.21" departDelay="0.00" arrival="299.60" arrivalLane="-145894807#0_1" arrivalPos="260.95" arrivalPosLat="0.00" arrivalSpeed="8.45" duration="114.40" routeLength="1092.76" waitingTime="10.80" waitingCount="1" stopTime="0.00" timeLoss="30.38" rerouteNo="1" devices="tripinfo_D2_1.2 routing_D2_1.2" vType="car" speedFactor="1.02" vaporized=""/>
    <personinfo id="pf_1.1" depart="45.00" type="ped" speedFactor="0.94" duration="265.40" waitingTime="0.00" timeLoss="26.24" traveltime="265.40">
        <walk depart="45.00" departPos="25.00" arrival="310.40" arrivalPos="3.44" duration="265.40" routeLength="311.67" timeLoss="26.24" maxSpeed="1.30" waitingTime="0.00"/>
    </personinfo>
    <tripinfo id="D2_1.3" depart="223.20" departLane="140483224#1_1" departPos="2.30" departPosLat="0.00" departSpeed="26.42" departDelay="0.00" arrival="320.40" arrivalLane="-145894807#0_1" arrivalPos="260.95" arrivalPosLat="0.00" arrivalSpeed="7.67" duration="97.20" routeLength="1095.56" waitingTime="3.80" waitingCount="1" stopTime="0.00" timeLoss="7.41" rerouteNo="1" devices="tripinfo_D2_1.3 routing_D2_1.3" vType="motorcycle" speedFactor="0.95" vaporized=""/>
    <tripinfo id="D1_1.4" depart="236.00" departLane="140483224#1_1" departPos="7.20" departPosLat="0.00" departSpeed="26.48" departDelay="0.00" arrival="323.50" arrivalLane="-793339796#2_2" arrivalPos="82.50" arrivalPosLat="0.00" arrivalSpeed="25.45" duration="87.50" routeLength="1646.28" waitingTime="0.00" waitingCount="0" stopTime="0.00" timeLoss="22.85" rerouteNo="1" devices="tripinfo_D1_1.4 routing_D1_1.4" vType="truck" speedFactor="0.95" vaporized=""/>
    <tripinfo id="A3_1.0" depart="137.20" departLane="-793339796#2_2" departPos="5.10" departPosLat="0.00" departSpeed="26.39" departDelay="10.10" arrival="327.50" arrivalLane="-140483224#1_2" arrivalPos="64.04" arrivalPosLat="0.00" arrivalSpeed="26.32" duration="190.30" routeLength="1080.94" waitingTime="139.60" waitingCount="1" stopTime="0.00" timeLoss="147.73" rerouteNo="1" devices="tripinfo_A3_1.0 routing_A3_1.0" vType="car" speedFactor="0.95" vaporized=""/>
    <tripinfo id="A2_1.3" depart="137.50" departLane="-793339796#2_1" departPos="5.10" departPosLat="0.00" departSpeed="23.74" departDelay="7.60" arrival="328.70" arrivalLane="-440471861#0_2" arrivalPos="31.52" arrivalPosLat="0.00" arrivalSpeed="26.08" duration="191.20" routeLength="1081.27" waitingTime="134.50" waitingCount="1" stopTime="0.00" timeLoss="149.77" rerouteNo="1" devices="tripinfo_A2_1.3 routing_A2_1.3" vType="car" speedFactor="0.94" vaporized=""/>
    <tripinfo id="A3_1.1" depart="193.40" departLane="-793339796#2_1" departPos="2.30" departPosLat="0.00" departSpeed="28.47" departDelay="0.00" arrival="330.30" arrivalLane="-140483224#1_2" arrivalPos="64.04" arrivalPosLat="0.00" arrivalSpeed="28.42" duration="136.90" routeLength="1083.74" waitingTime="83.30" waitingCount="1" stopTime="0.00" timeLoss="97.38" rerouteNo="1" devices="tripinfo_A3_1.1 routing_A3_1.1" vType="tricycle" speedFactor="1.02" vaporized=""/>
    <tripinfo id="A3_1.2" depart="214.60" departLane="-793339796#2_2" departPos="5.10" departPosLat="0.00" departSpeed="27.11" departDelay="0.00" arrival="333.20" arrivalLane="-140483224#1_2" arrivalPos="64.04" arrivalPosLat="0.00" arrivalSpeed="27.07" duration="118.60" routeLength="1080.94" waitingTime="60.40" waitingCount="1" stopTime="0.00" timeLoss="77.16" rerouteNo="1" devices="tripinfo_A3_1.2 routing_A3_1.2" vType="car" speedFactor="0.98" vaporized=""/>
    <tripinfo id="A2_1.2" depart="137.20" departLane="-793339796#2_1" departPos="8.10" departPosLat="0.00" departSpeed="27.78" departDelay="11.40" arrival="335.00" arrivalLane="-440471861#0_1" arrivalPos="31.52" arrivalPosLat="0.00" arrivalSpeed="27.77" duration="197.80" routeLength="1078.27" waitingTime="140.20" waitingCount="1" stopTime="0.00" timeLoss="158.96" rerouteNo="1" devices="tripinfo_A2_1.2 routing_A2_1.2" vType="jeep" speedFactor="1.00" vaporized=""/>
    <tripinfo id="A3_1.3" depart="222.10" departLane="-793339796#2_1" departPos="2.30" departPosLat="0.00" departSpeed="24.80" departDelay="0.00" arrival="335.30" arrivalLane="-140483224#1_2" arrivalPos="64.04" arrivalPosLat="0.00" arrivalSpeed="24.80" duration="113.20" routeLength="1083.74" waitingTime="49.60" waitingCount="2" stopTime="0.00" timeLoss="67.77" rerouteNo="1" devices="tripinfo_A3_1.3 routing_A3_1.3" vType="motorcycle" speedFactor="0.89" vaporized=""/>
    <personinfo id="pf_1.2" depart="90.00" type="ped" speedFactor="1.01" duration="248.30" waitingTime="1.20" timeLoss="26.20" traveltime="248.30">
        <walk depart="90.00" departPos="25.00" arrival="338.30" arrivalPos="3.44" duration="248.30" routeLength="311.67" timeLoss="26.20" maxSpeed="1.40" waitingTime="1.20"/>
    </personinfo>
    <personinfo id="pf_2.7" depart="315.00" type="ped" speedFactor="1.04" duration="23.80" waitingTime="0.00" timeLoss="2.59" traveltime="23.80">
        <walk depart="315.00" departPos="15.09" arrival="338.80" arrivalPos="3.44" duration="23.80" routeLength="30.72" timeLoss="2.59" maxSpeed="1.45" waitingTime="0.00"/>
    </personinfo>
    <tripinfo id="A3_1.4" depart="230.20" departLane="-793339796#2_2" departPos="8.10" departPosLat="0.00" departSpeed="17.55" departDelay="2.60" arrival="340.50" arrivalLane="-140483224#1_2" arrivalPos="64.04" arrivalPosLat="0.00" arrivalSpeed="27.72" duration="110.30" routeLength="1077.94" waitingTime="48.50" waitingCount="1" stopTime="0.00" timeLoss="69.93" rerouteNo="1" devices="tripinfo_A3_1.4 routing_A3_1.4" vType="jeep" speedFactor="1.00" vaporized=""/>
    <tripinfo id="A3_1.5" depart="271.20" departLane="-793339796#2_2" departPos="5.10" departPosLat="0.00" departSpeed="23.93" departDelay="15.80" arrival="343.10" arrivalLane="-140483224#1_2" arrivalPos="64.04" arrivalPosLat="0.00" arrivalSpeed="23.92" duration="71.90" routeLength="1080.94" waitingTime="5.70" waitingCount="1" stopTime="0.00" timeLoss="24.96" rerouteNo="1" devices="tripinfo_A3_1.5 routing_A3_1.5" vType="car" speedFactor="0.86" vaporized=""/>
    <tripinfo id="A3_1.6" depart="282.20" departLane="-793339796#2_2" departPos="8.10" departPosLat="0.00" departSpeed="27.78" departDelay="0.00" arrival="345.00" arrivalLane="-140483224#1_2" arrivalPos="64.04" arrivalPosLat="0.00" arrivalSpeed="27.29" duration="62.80" routeLength="1077.94" waitingTime="0.00" waitingCount="0" stopTime="0.00" timeLoss="22.50" rerouteNo="1" devices="tripinfo_A3_1.6 routing_A3_1.6" vType="jeep" speedFactor="1.00" vaporized=""/>
    <personinfo id="pf_4.5" depart="225.00" type="ped" speedFactor="1.01" duration="123.10" waitingTime="6.00" timeLoss="17.42" traveltime="123.10">
        <walk depart="225.00" departPos="25.00" arrival="288.00" arrivalPos="29.11" duration="63.00" routeLength="72.15" timeLoss="11.60" maxSpeed="1.40" waitingTime="6.00"/>
        <walk depart="288.00" departPos="29.11" arrival="348.10" arrivalPos="29.05" duration="60.10" routeLength="76.20" timeLoss="5.82" maxSpeed="1.40" waitingTime="0.00"/>
    </personinfo>
    <tripinfo id="A3_1.7" depart="303.30" departLane="-793339796#2_1" departPos="7.20" departPosLat="0.00" departSpeed="27.69" departDelay="6.30" arrival="351.00" arrivalLane="-140483224#1_2" arrivalPos="64.04" arrivalPosLat="0.00" arrivalSpeed="27.67" duration="47.70" routeLength="1078.84" waitingTime="0.00" waitingCount="0" stopTime="0.00" timeLoss="7.18" rerouteNo="1" devices="tripinfo_A3_1.7 routing_A3_1.7" vType="truck" speedFactor="1.00" vaporized=""/>
    <tripinfo id="A2_1.4" depart="323.30" departLane="-793339796#2_1" departPos="5.10" departPosLat="0.00" departSpeed="28.18" departDelay="10.40" arrival="361.80" arrivalLane="-440471861#0_1" arrivalPos="31.52" arrivalPosLat="0.00" arrivalSpeed="28.18" duration="38.50" routeLength="1081.27" waitingTime="0.00" waitingCount="0" stopTime="0.00" timeLoss="0.09" rerouteNo="1" devices="tripinfo_A2_1.4 routing_A2_1.4" vType="car" speedFactor="1.01" vaporized=""/>
    <tripinfo id="A1_1.1" depart="271.20" departLane="-793339796#2_1" departPos="8.10" departPosLat="0.00" departSpeed="27.78" departDelay="19.90" arrival="365.10" arrivalLane="-145894807#0_1" arrivalPos="260.95" arrivalPosLat="0.00" arrivalSpeed="8.33" duration="93.90" routeLength="1053.72" waitingTime="0.00" waitingCount="0" stopTime="0.00" timeLoss="4.48" rerouteNo="1" devices="tripinfo_A1_1.1 routing_A1_1.1" vType="jeep" speedFactor="1.00" vaporized=""/>
    <personinfo id="pf_1.3" depart="135.00" type="ped" speedFactor="1.08" duration="230.30" waitingTime="0.00" timeLoss="23.04" traveltime="230.30">
        <walk depart="135.00" departPos="25.00" arrival="365.30" arrivalPos="3.44" duration="230.30" routeLength="311.67" timeLoss="23.04" maxSpeed="1.50" waitingTime="0.00"/>
    </personinfo>
    <tripinfo id="A3_1.8" depart="323.30" departLane="-793339796#2_2" departPos="7.20" departPosLat="0.00" departSpeed="29.52" departDelay="7.80" arrival="368.80" arrivalLane="-140483224#1_2" arrivalPos="64.04" arrivalPosLat="0.00" arrivalSpeed="29.47" duration="45.50" routeLength="1078.84" waitingTime="0.00" waitingCount="0" stopTime="0.00" timeLoss="7.49" rerouteNo="1" devices="tripinfo_A3_1.8 routing_A3_1.8" vType="truck" speedFactor="1.06" vaporized=""/>
    <personinfo id="pf_2.8" depart="360.00" type="ped" speedFactor="1.01" duration="24.40" waitingTime="0.00" timeLoss="2.44" traveltime="24.40">
        <walk depart="360.00" departPos="15.09" arrival="384.40" arrivalPos="3.44" duration="24.40" routeLength="30.72" timeLoss="2.44" maxSpeed="1.40" waitingTime="0.00"/>
    </personinfo>
    <tripinfo id="D1_1.5" depart="315.20" departLane="140483224#1_1" departPos="5.10" departPosLat="0.00" departSpeed="31.67" departDelay="0.00" arrival="384.50" arrivalLane="-793339796#2_2" arrivalPos="82.50" arrivalPosLat="0.00" arrivalSpeed="31.57" duration="69.30" routeLength="1648.38" waitingTime="0.00" waitingCount="0" stopTime="0.00" timeLoss="15.20" rerouteNo="1" devices="tripinfo_D1_1.5 routing_D1_1.5" vType="car" speedFactor="1.14" vaporized=""/>
    <personinfo id="pf_4.6" depart="270.00" type="ped" speedFactor="0.97" duration="121.90" waitingTime="0.00" timeLoss="12.08" traveltime="121.90">
        <walk depart="270.00" departPos="25.00" arrival="329.30" arrivalPos="29.11" duration="59.30" routeLength="72.15" timeLoss="5.89" maxSpeed="1.35" waitingTime="0.00"/>
        <walk depart="329.30" departPos="29.11" arrival="391.90" arrivalPos="29.05" duration="62.60" routeLength="76.20" timeLoss="6.19" maxSpeed="1.35" waitingTime="0.00"/>
    </personinfo>
    <tripinfo id="A1_1.2" depart="309.20" departLane="-793339796#2_1" departPos="7.20" departPosLat="0.00" departSpeed="29.37" departDelay="0.00" arrival="398.50" arrivalLane="-145894807#0_1" arrivalPos="260.95" arrivalPosLat="0.00" arrivalSpeed="8.81" duration="89.30" routeLength="1054.62" waitingTime="0.00" waitingCount="0" stopTime="0.00" timeLoss="4.63" rerouteNo="1" devices="tripinfo_A1_1.2 routing_A1_1.2" vType="truck" speedFactor="1.06" vaporized=""/>
    <personinfo id="pf_3.1" depart="45.00" type="ped" speedFactor="1.08" duration="358.40" waitingTime="10.40" timeLoss="44.99" traveltime="358.40">
        <walk depart="45.00" departPos="25.00" arrival="143.20" arrivalPos="19.11" duration="98.20" routeLength="132.56" timeLoss="9.64" maxSpeed="1.50" waitingTime="0.00"/>
        <walk depart="143.20" departPos="19.11" arrival="403.40" arrivalPos="22.72" duration="260.20" routeLength="336.55" timeLoss="35.35" maxSpeed="1.50" waitingTime="10.40"/>
    </personinfo>