<?xml version="1.0" encoding="UTF-8"?>

<!-- generated on 2026-02-16 02:02:05 by Eclipse SUMO sumo Version 1.24.0
<sumoConfiguration xmlns:xsi="http://www.w3.org/2001/XMLSchema-instance" xsi:noNamespaceSchemaLocation="http://sumo.dlr.de/xsd/sumoConfiguration.xsd">

    <input>
        <net-file value="Olivarez_traci\network/baseline.net.xml"/>
        <route-files value="Olivarez_traci\demand/flows_slow_traffic.rou.xml"/>
        <additional-files value="Olivarez_traci\additionals/map.poly.xml,Olivarez_traci\ additionals/detectors.add.xml"/>
    </input>

    <output>
        <tripinfo-output value="Olivarez_traci\output_NoDRL\BP_NoDRL_trips.xml"/>
        <statistic-output value="Olivarez_traci\output_NoDRL\BP_NoDRL_stats.xml"/>
    </output>

    <time>
        <begin value="0"/>
        <end value="10800"/>
        <step-length value="0.1"/>
    </time>

    <processing>
        <lateral-resolution value="0.1"/>
        <collision.action value="none"/>
        <collision.check-junctions value="false"/>
        <collision.mingap-factor value="0"/>
    </processing>

    <report>
        <no-warnings value="true"/>
    </report>

    <traci_server>
        <remote-port value="57879"/>
    </traci_server>

    <gui_only>
        <delay value="20"/>
    </gui_only>

</sumoConfiguration>
-->

<tripinfos xmlns:xsi="http://www.w3.org/2001/XMLSchema-instance" xsi:noNamespaceSchemaLocation="http://sumo.dlr.de/xsd/tripinfo_file.xsd">
    <personinfo id="pf_2.0" depart="0.00" type="ped" speedFactor="0.88" duration="28.10" waitingTime="0.00" timeLoss="2.92" traveltime="28.10">
        <walk depart="0.00" departPos="15.09" arrival="28.10" arrivalPos="3.44" duration="28.10" routeLength="30.72" timeLoss="2.92" maxSpeed="1.22" waitingTime="0.00"/>
    </personinfo>
    <personinfo id="pf_2.1" depart="22.50" type="ped" speedFactor="1.08" duration="28.90" waitingTime="6.10" timeLoss="8.37" traveltime="28.90">
        <walk depart="22.50" departPos="15.09" arrival="51.40" arrivalPos="3.44" duration="28.90" routeLength="30.72" timeLoss="8.37" maxSpeed="1.50" waitingTime="6.10"/>
    </personinfo>
    <tripinfo id="D3_1.0" depart="15.30" departLane="140483224#1_2" departPos="5.10" departPosLat="0.00" departSpeed="28.45" departDelay="0.00" arrival="58.50" arrivalLane="-440471861#0_2" arrivalPos="31.52" arrivalPosLat="0.00" arrivalSpeed="28.41" duration="43.20" routeLength="1067.97" waitingTime="0.00" waitingCount="0" stopTime="0.00" timeLoss="4.09" rerouteNo="1" devices="tripinfo_D3_1.0 routing_D3_1.0" vType="car" speedFactor="1.02" vaporized=""/>
    <personinfo id="pf_2.2" depart="45.00" type="ped" speedFactor="0.99" duration="24.60" waitingTime="0.00" timeLoss="2.32" traveltime="24.60">
        <walk depart="45.00" departPos="15.09" arrival="69.60" arrivalPos="3.44" duration="24.60" routeLength="30.72" timeLoss="2.32" maxSpeed="1.38" waitingTime="0.00"/>
    </personinfo>
    <tripinfo id="D1_1.0" depart="1.20" departLane="140483224#1_1" departPos="5.10" departPosLat="0.00" departSpeed="27.86" departDelay="0.00" arrival="75.80" arrivalLane="-793339796#2_2" arrivalPos="82.50" arrivalPosLat="0.00" arrivalSpeed="27.85" duration="74.60" routeLength="1648.38" waitingTime="0.00" waitingCount="0" stopTime="0.00" timeLoss="13.13" rerouteNo="1" devices="tripinfo_D1_1.0 routing_D1_1.0" vType="car" speedFactor="1.00" vaporized=""/>
    <personinfo id="pf_2.3" depart="67.50" type="ped" speedFactor="1.13" duration="30.70" waitingTime="8.90" timeLoss="11.07" traveltime="30.70">
        <walk depart="67.50" departPos="15.09" arrival="98.20" arrivalPos="3.44" duration="30.70" routeLength="30.72" timeLoss="11.07" maxSpeed="1.57" waitingTime="8.90"/>
    </personinfo>
    <tripinfo id="A2_1.0" depart="8.90" departLane="-793339796#2_1" departPos="5.10" departPosLat="0.00" departSpeed="29.35" departDelay="0.00" arrival="106.00" arrivalLane="-440471861#0_1" arrivalPos="31.52" arrivalPosLat="0.00" arrivalSpeed="29.33" duration="97.10" routeLength="1081.27" waitingTime="49.70" waitingCount="1" stopTime="0.00" timeLoss="60.23" rerouteNo="1" devices="tripinfo_A2_1.0 routing_A2_1.0" vType="car" speedFactor="1.06" vaporized=""/>
    <tripinfo id="A2_1.2" depart="41.40" departLane="-793339796#2_1" departPos="5.10" departPosLat="0.00" departSpeed="28.78" departDelay="0.00" arrival="107.40" arrivalLane="-440471861#0_1" arrivalPos="31.52" arrivalPosLat="0.00" arrivalSpeed="28.70" duration="66.00" routeLength="1081.27" waitingTime="13.00" waitingCount="1" stopTime="0.00" timeLoss="28.40" rerouteNo="1" devices="tripinfo_A2_1.2 routing_A2_1.2" vType="car" speedFactor="1.04" vaporized=""/>
    <tripinfo id="A3_1.0" depart="31.50" departLane="-793339796#2_2" departPos="5.10" departPosLat="0.00" departSpeed="27.03" departDelay="0.50" arrival="111.60" arrivalLane="-140483224#1_2" arrivalPos="64.04" arrivalPosLat="0.00" arrivalSpeed="26.92" duration="80.10" routeLength="1080.94" waitingTime="22.30" waitingCount="1" stopTime="0.00" timeLoss="38.55" rerouteNo="1" devices="tripinfo_A3_1.0 routing_A3_1.0" vType="car" speedFactor="0.97" vaporized=""/>
    <personinfo id="pf_2.4" depart="90.00" type="ped" speedFactor="1.05" duration="23.50" waitingTime="0.00" timeLoss="2.47" traveltime="23.50">
        <walk depart="90.00" departPos="15.09" arrival="113.50" arrivalPos="3.44" duration="23.50" routeLength="30.72" timeLoss="2.47" maxSpeed="1.46" waitingTime="0.00"/>
    </personinfo>
    <personinfo id="pf_4.0" depart="0.00" type="ped" speedFactor="1.03" duration="114.90" waitingTime="0.00" timeLoss="11.04" traveltime="114.90">
        <walk depart="0.00" departPos="25.00" arrival="55.90" arrivalPos="29.11" duration="55.90" routeLength="72.15" timeLoss="5.39" maxSpeed="1.43" waitingTime="0.00"/>
        <walk depart="55.90" departPos="29.11" arrival="114.90" arrivalPos="29.05" duration="59.00" routeLength="76.20" timeLoss="5.65" maxSpeed="1.43" waitingTime="0.00"/>
    </personinfo>
    <tripinfo id="A2_1.1" depart="16.40" departLane="-793339796#2_1" departPos="8.10" departPosLat="0.00" departSpeed="27.78" departDelay="0.00" arrival="115.30" arrivalLane="-440471861#0_2" arrivalPos="31.52" arrivalPosLat="0.00" arrivalSpeed="27.76" duration="98.90" routeLength="1078.27" waitingTime="40.40" waitingCount="1" stopTime="0.00" timeLoss="60.05" rerouteNo="1" devices="tripinfo_A2_1.1 routing_A2_1.1" vType="jeep" speedFactor="1.00" vaporized=""/>
    <tripinfo id="A2_1.3" depart="54.40" departLane="-793339796#2_1" departPos="7.20" departPosLat="0.00" departSpeed="25.39" departDelay="0.30" arrival="115.60" arrivalLane="-440471861#0_1" arrivalPos="31.52" arrivalPosLat="0.00" arrivalSpeed="25.37" duration="61.20" routeLength="1079.17" waitingTime="0.00" waitingCount="0" stopTime="0.00" timeLoss="18.68" rerouteNo="1" devices="tripinfo_A2_1.3 routing_A2_1.3" vType="truck" speedFactor="0.91" vaporized=""/>
    <tripinfo id="A3_1.1" depart="61.00" departLane="-793339796#2_1" departPos="12.10" departPosLat="0.00" departSpeed="27.78" departDelay="0.00" arrival="117.60" arrivalLane="-140483224#1_2" arrivalPos="64.04" arrivalPosLat="0.00" arrivalSpeed="27.76" duration="56.60" routeLength="1073.94" waitingTime="0.00" waitingCount="0" stopTime="0.00" timeLoss="16.48" rerouteNo="1" devices="tripinfo_A3_1.1 routing_A3_1.1" vType="bus" speedFactor="1.00" vaporized=""/>
    <tripinfo id="D1_1.1" depart="47.90" departLane="140483224#1_1" departPos="7.20" departPosLat="0.00" departSpeed="26.91" departDelay="0.00" arrival="133.40" arrivalLane="-793339796#2_2" arrivalPos="82.50" arrivalPosLat="0.00" arrivalSpeed="25.14" duration="85.50" routeLength="1646.28" waitingTime="0.00" waitingCount="0" stopTime="0.00" timeLoss="21.87" rerouteNo="1" devices="tripinfo_D1_1.1 routing_D1_1.1" vType="truck" speedFactor="0.97" vaporized=""/>
    <personinfo id="pf_4.1" depart="22.50" type="ped" speedFactor="1.04" duration="114.60" waitingTime="0.90" timeLoss="12.27" traveltime="114.60">
        <walk depart="22.50" departPos="25.00" arrival="78.70" arrivalPos="29.11" duration="56.20" routeLength="72.15" timeLoss="6.43" maxSpeed="1.45" waitingTime="0.90"/>
        <walk depart="78.70" departPos="29.11" arrival="137.10" arrivalPos="29.05" duration="58.40" routeLength="76.20" timeLoss="5.84" maxSpeed="1.45" waitingTime="0.00"/>
    </personinfo>
    <personinfo id="pf_2.5" depart="112.50" type="ped" speedFactor="0.91" duration="26.80" waitingTime="0.00" timeLoss="2.61" traveltime="26.80">
        <walk depart="112.50" departPos="15.09" arrival="139.30" arrivalPos="3.44" duration="26.80" routeLength="30.72" timeLoss="2.61" maxSpeed="1.27" waitingTime="0.00"/>
    </personinfo>
    <tripinfo id="B2_1.0" depart="13.90" departLane="-361257727#0_1" departPos="5.10" departPosLat="0.00" departSpeed="7.98" departDelay="0.00" arrival="141.50" arrivalLane="-440471861#0_1" arrivalPos="31.52" arrivalPosLat="-0.00" arrivalSpeed="26.58" duration="127.60" routeLength="1397.68" waitingTime="0.00" waitingCount="0" stopTime="0.00" timeLoss="5.50" rerouteNo="1" devices="tripinfo_B2_1.0 routing_B2_1.0" vType="car" speedFactor="0.96" vaporized=""/>
    <personinfo id="pf_4.2" depart="45.00" type="ped" speedFactor="1.08" duration="109.70" waitingTime="0.00" timeLoss="10.81" traveltime="109.70">
        <walk depart="45.00" departPos="25.00" arrival="98.40" arrivalPos="29.11" duration="53.40" routeLength="72.15" timeLoss="5.31" maxSpeed="1.50" waitingTime="0.00"/>
        <walk depart="98.40" departPos="29.11" arrival="154.70" arrivalPos="29.05" duration="56.30" routeLength="76.20" timeLoss="5.51" maxSpeed="1.50" waitingTime="0.00"/>
    </personinfo>
    <personinfo id="pf_2.6" depart="135.00" type="ped" speedFactor="1.00" duration="24.40" waitingTime="0.00" timeLoss="2.38" traveltime="24.40">
        <walk depart="135.00" departPos="15.09" arrival="159.40" arrivalPos="3.44" duration="24.40" routeLength="30.72" timeLoss="2.38" maxSpeed="1.39" waitingTime="0.00"/>
    </personinfo>
    <tripinfo id="B2_1.1" depart="62.00" departLane="-361257727#0_1" departPos="8.10" departPosLat="0.00" departSpeed="8.33" departDelay="0.00" arrival="189.50" arrivalLane="-440471861#0_1" arrivalPos="31.52" arrivalPosLat="-0.00" arrivalSpeed="27.74" duration="127.50" routeLength="1394.68" waitingTime="0.00" waitingCount="0" stopTime="0.00" timeLoss="10.86" rerouteNo="1" devices="tripinfo_B2_1.1 routing_B2_1.1" vType="jeep" speedFactor="1.00" vaporized=""/>
    <personinfo id="pf_4.3" depart="67.50" type="ped" speedFactor="0.99" duration="125.00" waitingTime="5.40" timeLoss="17.43" traveltime="125.00">
        <walk depart="67.50" departPos="25.00" arrival="131.00" arrivalPos="29.11" duration="63.50" routeLength="72.15" timeLoss="11.18" maxSpeed="1.38" waitingTime="5.40"/>
        <walk depart="131.00" departPos="29.11" arrival="192.50" arrivalPos="29.05" duration="61.50" routeLength="76.20" timeLoss="6.24" maxSpeed="1.38" waitingTime="0.00"/>
    </personinfo>
    <personinfo id="pf_2.7" depart="157.50" type="ped" speedFactor="1.03" duration="44.70" waitingTime="20.70" timeLoss="23.22" traveltime="44.70">
        <walk depart="157.50" departPos="15.09" arrival="202.20" arrivalPos="3.44" duration="44.70" routeLength="30.72" timeLoss="23.22" maxSpeed="1.43" waitingTime="20.70"/>
    </personinfo>
    <personinfo id="pf_2.8" depart="180.00" type="ped" speedFactor="0.98" duration="24.90" waitingTime="0.00" timeLoss="2.42" traveltime="24.90">
        <walk depart="180.00" departPos="15.09" arrival="204.90" arrivalPos="3.44" duration="24.90" routeLength="30.72" timeLoss="2.42" maxSpeed="1.37" waitingTime="0.00"/>
    </personinfo>
    <personinfo id="pf_4.4" depart="90.00" type="ped" speedFactor="0.98" duration="123.30" waitingTime="2.60" timeLoss="14.53" traveltime="123.30">
        <walk depart="90.00" departPos="25.00" arrival="148.70" arrivalPos="29.11" duration="58.70" routeLength="72.15" timeLoss="5.80" maxSpeed="1.36" waitingTime="0.00"/>
        <walk depart="148.70" departPos="29.11" arrival="213.30" arrivalPos="29.05" duration="64.60" routeLength="76.20" timeLoss="8.73" maxSpeed="1.36" waitingTime="2.60"/>
    </personinfo>
    <tripinfo id="C3_1.0" depart="8.60" departLane="440471861#0_1" departPos="5.10" departPosLat="0.00" departSpeed="28.99" departDelay="0.00" arrival="215.90" arrivalLane="-140483224#1_1" arrivalPos="64.04" arrivalPosLat="-0.00" arrivalSpeed="28.88" duration="207.30" routeLength="1052.78" waitingTime="160.40" waitingCount="1" stopTime="0.00" timeLoss="169.69" rerouteNo="1" devices="tripinfo_C3_1.0 routing_C3_1.0" vType="car" speedFactor="1.04" vaporized=""/>
    <tripinfo id="C3_1.2" depart="47.20" departLane="440471861#0_1" departPos="5.10" departPosLat="0.00" departSpeed="30.59" departDelay="0.00" arrival="218.30" arrivalLane="-140483224#1_2" arrivalPos="64.04" arrivalPosLat="0.00" arrivalSpeed="30.55" duration="171.10" routeLength="1052.78" waitingTime="113.80" waitingCount="2" stopTime="0.00" timeLoss="135.36" rerouteNo="1" devices="tripinfo_C3_1.2 routing_C3_1.2" vType="car" speedFactor="1.10" vaporized=""/>
    <tripinfo id="C3_1.1" depart="22.80" departLane="440471861#0_1" departPos="2.30" departPosLat="0.00" departSpeed="25.10" departDelay="0.00" arrival="218.90" arrivalLane="-140483224#1_1" arrivalPos="64.04" arrivalPosLat="-0.00" arrivalSpeed="25.01" duration="196.10" routeLength="1055.58" waitingTime="141.60" waitingCount="1" stopTime="0.00" timeLoss="152.54" rerouteNo="1" devices="tripinfo_C3_1.1 routing_C3_1.1" vType="motorcycle" speedFactor="0.90" vaporized=""/>
    <tripinfo id="C3_1.3" depart="87.10" departLane="440471861#0_1" departPos="7.20" departPosLat="0.00" departSpeed="29.74" departDelay="0.00" arrival="225.60" arrivalLane="-140483224#1_2" arrivalPos="64.04" arrivalPosLat="0.00" arrivalSpeed="29.70" duration="138.50" routeLength="1050.68" waitingTime="69.10" waitingCount="2" stopTime="0.00" timeLoss="101.94" rerouteNo="1" devices="tripinfo_C3_1.3 routing_C3_1.3" vType="truck" speedFactor="1.07" vaporized=""/>
    <tripinfo id="C3_1.4" depart="109.30" departLane="440471861#0_1" departPos="8.10" departPosLat="0.00" departSpeed="27.78" departDelay="0.00" arrival="228.60" arrivalLane="-140483224#1_2" arrivalPos="64.04" arrivalPosLat="0.00" arrivalSpeed="27.74" duration="119.30" routeLength="1049.78" waitingTime="50.10" waitingCount="2" stopTime="0.00" timeLoss="80.13" rerouteNo="1" devices="tripinfo_C3_1.4 routing_C3_1.4" vType="jeep" speedFactor="1.00" vaporized=""/>
    <personinfo id="pf_2.9" depart="202.50" type="ped" speedFactor="0.94" duration="26.20" waitingTime="0.00" timeLoss="2.67" traveltime="26.20">
        <walk depart="202.50" departPos="15.09" arrival="228.70" arrivalPos="3.44" duration="26.20" routeLength="30.72" timeLoss="2.67" maxSpeed="1.31" waitingTime="0.00"/>
    </personinfo>
    <tripinfo id="C2_1.0" depart="40.30" departLane="440471861#0_2" departPos="12.10" departPosLat="0.00" departSpeed="27.78" departDelay="0.00" arrival="228.80" arrivalLane="-145894807#0_1" arrivalPos="260.95" arrivalPosLat="0.00" arrivalSpeed="8.30" duration="188.50" routeLength="1075.06" waitingTime="93.00" waitingCount="1" stopTime="0.00" timeLoss="103.49" rerouteNo="1" devices="tripinfo_C2_1.0 routing_C2_1.0" vType="bus" speedFactor="1.00" vaporized=""/>
    <tripinfo id="C1_1.1" depart="57.10" departLane="440471861#0_1" departPos="8.10" departPosLat="0.00" departSpeed="27.78" departDelay="0.00" arrival="229.90" arrivalLane="-793339796#2_1" arrivalPos="82.50" arrivalPosLat="-0.00" arrivalSpeed="24.26" duration="172.80" routeLength="1650.99" waitingTime="72.50" waitingCount="1" stopTime="0.00" timeLoss="112.34" rerouteNo="1" devices="tripinfo_C1_1.1 routing_C1_1.1" vType="jeep" speedFactor="1.00" vaporized=""/>
    <tripinfo id="C3_1.5" depart="156.50" departLane="440471861#0_1" departPos="8.10" departPosLat="0.00" departSpeed="27.78" departDelay="0.00" arrival="230.90" arrivalLane="-140483224#1_2" arrivalPos="64.04" arrivalPosLat="0.00" arrivalSpeed="27.74" duration="74.40" routeLength="1049.78" waitingTime="6.50" waitingCount="1" stopTime="0.00" timeLoss="35.20" rerouteNo="1" devices="tripinfo_C3_1.5 routing_C3_1.5" vType="jeep" speedFactor="1.00" vaporized=""/>
    <tripinfo id="C1_1.4" depart="125.70" departLane="440471861#0_1" departPos="5.10" departPosLat="0.00" departSpeed="28.41" departDelay="0.00" arrival="231.00" arrivalLane="-793339796#2_2" arrivalPos="82.50" arrivalPosLat="0.00" arrivalSpeed="28.07" duration="105.30" routeLength="1653.99" waitingTime="5.70" waitingCount="1" stopTime="0.00" timeLoss="45.96" rerouteNo="1" devices="tripinfo_C1_1.4 routing_C1_1.4" vType="car" speedFactor="1.02" vaporized=""/>
    <tripinfo id="C2_1.1" depart="54.60" departLane="440471861#0_2" departPos="5.10" departPosLat="0.00" departSpeed="34.31" departDelay="0.00" arrival="231.10" arrivalLane="-145894807#0_1" arrivalPos="260.95" arrivalPosLat="0.00" arrivalSpeed="10.17" duration="176.50" routeLength="1082.06" waitingTime="77.90" waitingCount="1" stopTime="0.00" timeLoss="107.47" rerouteNo="1" devices="tripinfo_C2_1.1 routing_C2_1.1" vType="car" speedFactor="1.24" vaporized=""/>
    <personinfo id="pf_4.6" depart="135.00" type="ped" speedFactor="1.24" duration="98.20" waitingTime="2.40" timeLoss="12.14" traveltime="98.20">
        <walk depart="135.00" departPos="25.00" arrival="181.40" arrivalPos="29.11" duration="46.40" routeLength="72.15" timeLoss="4.54" maxSpeed="1.72" waitingTime="0.00"/>
        <walk depart="181.40" departPos="29.11" arrival="233.20" arrivalPos="29.05" duration="51.80" routeLength="76.20" timeLoss="7.60" maxSpeed="1.72" waitingTime="2.40"/>
    </personinfo>
    <personinfo id="pf_1.0" depart="0.00" type="ped" speedFactor="1.06" duration="235.40" waitingTime="0.00" timeLoss="23.70" traveltime="235.40">
        <walk depart="0.00" departPos="25.00" arrival="235.40" arrivalPos="3.44" duration="235.40" routeLength="311.67" timeLoss="23.70" maxSpeed="1.47" waitingTime="0.00"/>
    </personinfo>
    <tripinfo id="C1_1.5" depart="131.40" departLane="440471861#0_1" departPos="12.10" departPosLat="0.00" departSpeed="27.78" departDelay="0.00" arrival="237.00" arrivalLane="-793339796#2_1" arrivalPos="82.50" arrivalPosLat="-0.00" arrivalSpeed="24.33" duration="105.60" routeLength="1646.99" waitingTime="0.00" waitingCount="0" stopTime="0.00" timeLoss="45.26" rerouteNo="1" devices="tripinfo_C1_1.5 routing_C1_1.5" vType="bus" speedFactor="1.00" vaporized=""/>
    <personinfo id="pf_4.5" depart="112.50" type="ped" speedFactor="1.08" duration="124.80" waitingTime="15.20" timeLoss="26.24" traveltime="124.80">
        <walk depart="112.50" departPos="25.00" arrival="165.90" arrivalPos="29.11" duration="53.40" routeLength="72.15" timeLoss="5.47" maxSpeed="1.51" waitingTime="0.00"/>
        <walk depart="165.90" departPos="29.11" arrival="237.30" arrivalPos="29.05" duration="71.40" routeLength="76.20" timeLoss="20.77" maxSpeed="1.51" waitingTime="15.20"/>
    </personinfo>
    <tripinfo id="C1_1.6" depart="142.00" departLane="440471861#0_1" departPos="7.20" departPosLat="0.00" departSpeed="24.83" departDelay="0.00" arrival="241.20" arrivalLane="-793339796#2_2" arrivalPos="82.50" arrivalPosLat="0.00" arrivalSpeed="24.77" duration="99.20" routeLength="1651.89" waitingTime="0.00" waitingCount="0" stopTime="0.00" timeLoss="31.39" rerouteNo="1" devices="tripinfo_C1_1.6 routing_C1_1.6" vType="truck" speedFactor="0.89" vaporized=""/>
    <tripinfo id="C1_1.0" depart="35.30" departLane="440471861#0_1" departPos="5.10" departPosLat="0.00" departSpeed="25.38" departDelay="0.00" arrival="242.40" arrivalLane="-793339796#2_2" arrivalPos="82.50" arrivalPosLat="0.00" arrivalSpeed="25.36" duration="207.10" routeLength="1653.99" waitingTime="110.20" waitingCount="1" stopTime="0.00" timeLoss="140.69" rerouteNo="1" devices="tripinfo_C1_1.0 routing_C1_1.0" vType="car" speedFactor="0.91" vaporized=""/>
    <tripinfo id="C1_1.2" depart="63.70" departLane="440471861#0_1" departPos="2.30" departPosLat="0.00" departSpeed="25.73" departDelay="0.00" arrival="244.40" arrivalLane="-793339796#2_1" arrivalPos="82.50" arrivalPosLat="0.00" arrivalSpeed="25.71" duration="180.70" routeLength="1656.79" waitingTime="82.50" waitingCount="1" stopTime="0.00" timeLoss="115.04" rerouteNo="1" devices="tripinfo_C1_1.2 routing_C1_1.2" vType="tricycle" speedFactor="0.93" vaporized=""/>
    <tripinfo id="C1_1.3" depart="82.10" departLane="440471861#0_1" departPos="5.10" departPosLat="0.00" departSpeed="24.54" departDelay="0.00" arrival="246.10" arrivalLane="-793339796#2_2" arrivalPos="82.50" arrivalPosLat="0.00" arrivalSpeed="24.47" duration="164.00" routeLength="1653.99" waitingTime="62.50" waitingCount="1" stopTime="0.00" timeLoss="95.24" rerouteNo="1" devices="tripinfo_C1_1.3 routing_C1_1.3" vType="car" speedFactor="0.88" vaporized=""/>
    <tripinfo id="C1_1.7" depart="160.50" departLane="440471861#0_1" departPos="5.10" departPosLat="0.00" departSpeed="30.21" departDelay="0.00" arrival="247.70" arrivalLane="-793339796#2_1" arrivalPos="82.50" arrivalPosLat="-0.00" arrivalSpeed="29.67" duration="87.20" routeLength="1653.99" waitingTime="0.00" waitingCount="0" stopTime="0.00" timeLoss="31.34" rerouteNo="1" devices="tripinfo_C1_1.7 routing_C1_1.7" vType="car" speedFactor="1.09" vaporized=""/>
    <tripinfo id="B1_1.0" depart="75.60" departLane="-361257727#0_1" departPos="5.10" departPosLat="0.00" departSpeed="8.37" departDelay="0.00" arrival="250.80" arrivalLane="-793339796#2_2" arrivalPos="82.50" arrivalPosLat="0.00" arrivalSpeed="27.85" duration="175.20" routeLength="1915.44" waitingTime="14.80" waitingCount="2" stopTime="0.00" timeLoss="41.19" rerouteNo="1" devices="tripinfo_B1_1.0 routing_B1_1.0" vType="car" speedFactor="1.00" vaporized=""/>
    <personinfo id="pf_2.10" depart="225.00" type="ped" speedFactor="1.09" duration="35.20" waitingTime="12.70" timeLoss="14.85" traveltime="35.20">
        <walk depart="225.00" departPos="15.09" arrival="260.20" arrivalPos="3.44" duration="35.20" routeLength="30.72" timeLoss="14.85" maxSpeed="1.51" waitingTime="12.70"/>
    </personinfo>
    <tripinfo id="A1_1.0" depart="166.90" departLane="-793339796#2_1" departPos="5.10" departPosLat="0.00" departSpeed="27.30" departDelay="9.00" arrival="261.50" arrivalLane="-145894807#0_1" arrivalPos="260.95" arrivalPosLat="0.00" arrivalSpeed="8.13" duration="94.60" routeLength="1056.72" waitingTime="0.00" waitingCount="0" stopTime="0.00" timeLoss="3.53" rerouteNo="1" devices="tripinfo_A1_1.0 routing_A1_1.0" vType="car" speedFactor="0.98" vaporized=""/>
    <tripinfo id="B2_1.2" depart="129.20" departLane="-361257727#0_1" departPos="5.10" departPosLat="0.00" departSpeed="7.06" departDelay="0.00" arrival="264.60" arrivalLane="-440471861#0_1" arrivalPos="31.52" arrivalPosLat="-0.00" arrivalSpeed="26.83" duration="135.40" routeLength="1397.68" waitingTime="1.50" waitingCount="1" stopTime="0.00" timeLoss="14.21" rerouteNo="1" devices="tripinfo_B2_1.2 routing_B2_1.2" vType="car" speedFactor="0.97" vaporized=""/>
    <tripinfo id="B3_1.0" depart="127.70" departLane="-361257727#0_1" departPos="8.10" departPosLat="0.00" departSpeed="8.33" departDelay="0.00" arrival="265.50" arrivalLane="-140483224#1_1" arrivalPos="64.04" arrivalPosLat="0.00" arrivalSpeed="27.77" duration="137.80" routeLength="1407.94" waitingTime="0.80" waitingCount="1" stopTime="0.00" timeLoss="20.89" rerouteNo="1" devices="tripinfo_B3_1.0 routing_B3_1.0" vType="jeep" speedFactor="1.00" vaporized=""/>
    <personinfo id="pf_4.7" depart="157.50" type="ped" speedFactor="1.06" duration="111.50" waitingTime="0.00" timeLoss="10.81" traveltime="111.50">
        <walk depart="157.50" departPos="25.00" arrival="211.70" arrivalPos="29.11" duration="54.20" routeLength="72.15" timeLoss="5.23" maxSpeed="1.47" waitingTime="0.00"/>
        <walk depart="211.70" departPos="29.11" arrival="269.00" arrivalPos="29.05" duration="57.30" routeLength="76.20" timeLoss="5.58" maxSpeed="1.47" waitingTime="0.00"/>
    </personinfo>
    <tripinfo id="D3_1.1" depart="179.60" departLane="140483224#1_2" departPos="5.10" departPosLat="0.00" departSpeed="29.50" departDelay="0.00" arrival="275.80" arrivalLane="-440471861#0_2" arrivalPos="31.52" arrivalPosLat="0.00" arrivalSpeed="29.48" duration="96.20" routeLength="1067.97" waitingTime="49.20" waitingCount="1" stopTime="0.00" timeLoss="58.54" rerouteNo="1" devices="tripinfo_D3_1.1 routing_D3_1.1" vType="car" speedFactor="1.06" vaporized=""/>
    <tripinfo id="B2_1.3" depart="150.30" departLane="-361257727#0_1" departPos="12.10" departPosLat="0.00" departSpeed="8.33" departDelay="0.00" arrival="277.60" arrivalLane="-440471861#0_1" arrivalPos="31.52" arrivalPosLat="-0.00" arrivalSpeed="27.75" duration="127.30" routeLength="1390.68" waitingTime="0.00" waitingCount="0" stopTime="0.00" timeLoss="11.13" rerouteNo="1" devices="tripinfo_B2_1.3 routing_B2_1.3" vType="bus" speedFactor="1.00" vaporized=""/>
    <personinfo id="pf_2.11" depart="247.50" type="ped" speedFactor="0.90" duration="31.70" waitingTime="4.20" timeLoss="7.02" traveltime="31.70">
        <walk depart="247.50" departPos="15.09" arrival="279.20" arrivalPos="3.44" duration="31.70" routeLength="30.72" timeLoss="7.02" maxSpeed="1.24" waitingTime="4.20"/>
    </personinfo>
    <tripinfo id="D3_1.2" depart="201.70" departLane="140483224#1_2" departPos="5.10" departPosLat="0.00" departSpeed="25.75" departDelay="0.00" arrival="279.40" arrivalLane="-440471861#0_2" arrivalPos="31.52" arrivalPosLat="0.00" arrivalSpeed="25.68" duration="77.70" routeLength="1067.97" waitingTime="25.40" waitingCount="1" stopTime="0.00" timeLoss="34.53" rerouteNo="1" devices="tripinfo_D3_1.2 routing_D3_1.2" vType="car" speedFactor="0.93" vaporized=""/>
    <tripinfo id="D3_1.3" depart="206.80" departLane="140483224#1_1" departPos="2.30" departPosLat="0.00" departSpeed="29.34" departDelay="0.00" arrival="280.70" arrivalLane="-440471861#0_2" arrivalPos="31.52" arrivalPosLat="0.00" arrivalSpeed="28.32" duration="73.90" routeLength="1070.77" waitingTime="18.60" waitingCount="2" stopTime="0.00" timeLoss="35.93" rerouteNo="1" devices="tripinfo_D3_1.3 routing_D3_1.3" vType="tricycle" speedFactor="1.06" vaporized=""/>
    <tripinfo id="D3_1.4" depart="212.70" departLane="140483224#1_2" departPos="5.10" departPosLat="0.00" departSpeed="27.90" departDelay="0.00" arrival="283.40" arrivalLane="-440471861#0_2" arrivalPos="31.52" arrivalPosLat="0.00" arrivalSpeed="27.79" duration="70.70" routeLength="1067.97" waitingTime="17.00" waitingCount="1" stopTime="0.00" timeLoss="30.89" rerouteNo="1" devices="tripinfo_D3_1.4 routing_D3_1.4" vType="car" speedFactor="1.00" vaporized=""/>
    <tripinfo id="D3_1.5" depart="231.30" departLane="140483224#1_2" departPos="5.10" departPosLat="0.00" departSpeed="27.99" departDelay="0.00" arrival="284.60" arrivalLane="-440471861#0_2" arrivalPos="31.52" arrivalPosLat="0.00" arrivalSpeed="27.96" duration="53.30" routeLength="1067.97" waitingTime="0.00" waitingCount="0" stopTime="0.00" timeLoss="13.61" rerouteNo="1" devices="tripinfo_D3_1.5 routing_D3_1.5" vType="car" speedFactor="1.01" vaporized=""/>
    <tripinfo id="D2_1.0" depart="67.30" departLane="140483224#1_1" departPos="5.10" departPosLat="0.00" departSpeed="29.37" departDelay="0.00" arrival="287.10" arrivalLane="-145894807#0_1" arrivalPos="260.95" arrivalPosLat="0.00" arrivalSpeed="8.73" duration="219.80" routeLength="1092.76" waitingTime="131.50" waitingCount="1" stopTime="0.00" timeLoss="139.14" rerouteNo="1" devices="tripinfo_D2_1.0 routing_D2_1.0" vType="car" speedFactor="1.06" vaporized=""/>
    <personinfo id="pf_1.1" depart="22.50" type="ped" speedFactor="0.94" duration="265.50" waitingTime="0.00" timeLoss="26.34" traveltime="265.50">
        <walk depart="22.50" departPos="25.00" arrival="288.00" arrivalPos="3.44" duration="265.50" routeLength="311.67" timeLoss="26.34" maxSpeed="1.30" waitingTime="0.00"/>
    </personinfo>
    <personinfo id="pf_1.2" depart="45.00" type="ped" speedFactor="1.01" duration="246.80" waitingTime="0.10" timeLoss="24.70" traveltime="246.80">
        <walk depart="45.00" departPos="25.00" arrival="291.80" arrivalPos="3.44" duration="246.80" routeLength="311.67" timeLoss="24.70" maxSpeed="1.40" waitingTime="0.10"/>
    </personinfo>
    <tripinfo id="D1_1.3" depart="92.30" departLane="140483224#1_1" departPos="5.10" departPosLat="0.00" departSpeed="33.02" departDelay="0.00" arrival="294.90" arrivalLane="-793339796#2_1" arrivalPos="82.50" arrivalPosLat="-0.00" arrivalSpeed="32.98" duration="202.60" routeLength="1648.38" waitingTime="108.70" waitingCount="1" stopTime="0.00" timeLoss="150.77" rerouteNo="1" devices="tripinfo_D1_1.3 routing_D1_1.3" vType="car" speedFactor="1.19" vaporized=""/>
    <tripinfo id="D1_1.2" depart="74.50" departLane="140483224#1_1" departPos="7.20" departPosLat="0.00" departSpeed="27.47" departDelay="0.00" arrival="296.60" arrivalLane="-793339796#2_2" arrivalPos="82.50" arrivalPosLat="0.00" arrivalSpeed="25.38" duration="222.10" routeLength="1646.28" waitingTime="123.30" waitingCount="1" stopTime="0.00" timeLoss="159.76" rerouteNo="1" devices="tripinfo_D1_1.2 routing_D1_1.2" vType="truck" speedFactor="0.99" vaporized=""/>
    <personinfo id="pf_4.8" depart="180.00" type="ped" speedFactor="1.09" duration="117.60" waitingTime="8.60" timeLoss="19.38" traveltime="117.60">
        <walk depart="180.00" departPos="25.00" arrival="237.30" arrivalPos="29.11" duration="57.30" routeLength="72.15" timeLoss="9.53" maxSpeed="1.51" waitingTime="4.20"/>
        <walk depart="237.30" departPos="29.11" arrival="297.60" arrivalPos="29.05" duration="60.30" routeLength="76.20" timeLoss="9.85" maxSpeed="1.51" waitingTime="4.40"/>
    </personinfo>
    <personinfo id="pf_1.3" depart="67.50" type="ped" speedFactor="1.08" duration="232.10" waitingTime="1.20" timeLoss="24.84" traveltime="232.10">
        <walk depart="67.50" departPos="25.00" arrival="299.60" arrivalPos="3.44" duration="232.10" routeLength="311.67" timeLoss="24.84" maxSpeed="1.50" waitingTime="1.20"/>
    </personinfo>