<?xml version="1.0" encoding="UTF-8"?>

<!-- generated on 2026-02-17 00:31:39 by Eclipse SUMO sumo Version 1.24.0
<sumoConfiguration xmlns:xsi="http://www.w3.org/2001/XMLSchema-instance" xsi:noNamespaceSchemaLocation="http://sumo.dlr.de/xsd/sumoConfiguration.xsd">

    <input>
        <net-file value="Olivarez_traci\network/baseline.net.xml"/>
        <route-files value="Olivarez_traci\demand/flows_traffic_jam.rou.xml"/>
        <additional-files value="Olivarez_traci\additionals/map.poly.xml,Olivarez_traci\ additionals/detectors.add.xml"/>
    </input>

    <output>
        <tripinfo-output value="Olivarez_traci\output_NoDRL\BP_NoDRL_trips.xml"/>
        <statistic-output value="Olivarez_traci\output_NoDRL\BP_NoDRL_stats.xml"/>
    </output>

    <time>
        <begin value="0"/>
        <end value="10800"/>
        <step-length value="0.1"/>
    </time>

    <processing>
        <lateral-resolution value="0.1"/>
        <collision.action value="none"/>
        <collision.check-junctions value="false"/>
        <collision.mingap-factor value="0"/>
    </processing>

    <report>
        <no-warnings value="true"/>
    </report>

    <traci_server>
        <remote-port value="51874"/>
    </traci_server>

    <gui_only>
        <delay value="20"/>
    </gui_only>

</sumoConfiguration>
-->

<tripinfos xmlns:xsi="http://www.w3.org/2001/XMLSchema-instance" xsi:noNamespaceSchemaLocation="http://sumo.dlr.de/xsd/tripinfo_file.xsd">
    <personinfo id="pf_2.0" depart="0.00" type="ped" speedFactor="0.83" duration="29.90" waitingTime="0.00" timeLoss="3.11" traveltime="29.90">
        <walk depart="0.00" departPos="15.09" arrival="29.90" arrivalPos="3.44" duration="29.90" routeLength="30.72" timeLoss="3.11" maxSpeed="1.15" waitingTime="0.00"/>
    </personinfo>
    <personinfo id="pf_2.1" depart="15.00" type="ped" speedFactor="0.87" duration="42.40" waitingTime="14.30" timeLoss="17.05" traveltime="42.40">
        <walk depart="15.00" departPos="15.09" arrival="57.40" arrivalPos="3.44" duration="42.40" routeLength="30.72" timeLoss="17.05" maxSpeed="1.21" waitingTime="14.30"/>
    </personinfo>
    <personinfo id="pf_2.2" depart="30.00" type="ped" speedFactor="0.92" duration="28.00" waitingTime="0.90" timeLoss="3.88" traveltime="28.00">
        <walk depart="30.00" departPos="15.09" arrival="58.00" arrivalPos="3.44" duration="28.00" routeLength="30.72" timeLoss="3.88" maxSpeed="1.27" waitingTime="0.90"/>
    </personinfo>
    <tripinfo id="D3_1.0" depart="15.30" departLane="140483224#1_1" departPos="2.30" departPosLat="0.00" departSpeed="26.42" departDelay="0.00" arrival="61.40" arrivalLane="-440471861#0_2" arrivalPos="31.52" arrivalPosLat="0.00" arrivalSpeed="26.40" duration="46.10" routeLength="1070.77" waitingTime="0.00" waitingCount="0" stopTime="0.00" timeLoss="3.95" rerouteNo="1" devices="tripinfo_D3_1.0 routing_D3_1.0" vType="tricycle" speedFactor="0.95" vaporized=""/>
    <personinfo id="pf_2.3" depart="45.00" type="ped" speedFactor="0.95" duration="27.20" waitingTime="1.20" timeLoss="3.89" traveltime="27.20">
        <walk depart="45.00" departPos="15.09" arrival="72.20" arrivalPos="3.44" duration="27.20" routeLength="30.72" timeLoss="3.89" maxSpeed="1.32" waitingTime="1.20"/>
    </personinfo>
    <tripinfo id="D1_1.0" depart="1.20" departLane="140483224#1_1" departPos="5.10" departPosLat="0.00" departSpeed="24.93" departDelay="0.00" arrival="81.80" arrivalLane="-793339796#2_2" arrivalPos="82.50" arrivalPosLat="0.00" arrivalSpeed="24.89" duration="80.60" routeLength="1648.38" waitingTime="0.00" waitingCount="0" stopTime="0.00" timeLoss="11.87" rerouteNo="1" devices="tripinfo_D1_1.0 routing_D1_1.0" vType="car" speedFactor="0.90" vaporized=""/>
    <personinfo id="pf_2.4" depart="60.00" type="ped" speedFactor="1.13" duration="27.80" waitingTime="5.80" timeLoss="8.26" traveltime="27.80">
        <walk depart="60.00" departPos="15.09" arrival="87.80" arrivalPos="3.44" duration="27.80" routeLength="30.72" timeLoss="8.26" maxSpeed="1.57" waitingTime="5.80"/>
    </personinfo>
    <tripinfo id="A2_1.0" depart="3.00" departLane="-793339796#2_1" departPos="5.10" departPosLat="0.00" departSpeed="29.34" departDelay="0.00" arrival="106.00" arrivalLane="-440471861#0_1" arrivalPos="31.52" arrivalPosLat="0.00" arrivalSpeed="29.23" duration="103.00" routeLength="1081.27" waitingTime="55.50" waitingCount="1" stopTime="0.00" timeLoss="66.05" rerouteNo="1" devices="tripinfo_A2_1.0 routing_A2_1.0" vType="car" speedFactor="1.06" vaporized=""/>
    <personinfo id="pf_4.0" depart="0.00" type="ped" speedFactor="1.11" duration="106.90" waitingTime="0.00" timeLoss="10.70" traveltime="106.90">
        <walk depart="0.00" departPos="25.00" arrival="52.00" arrivalPos="29.11" duration="52.00" routeLength="72.15" timeLoss="5.21" maxSpeed="1.54" waitingTime="0.00"/>
        <walk depart="52.00" departPos="29.11" arrival="106.90" arrivalPos="29.05" duration="54.90" routeLength="76.20" timeLoss="5.49" maxSpeed="1.54" waitingTime="0.00"/>
    </personinfo>
    <tripinfo id="A2_1.2" depart="8.90" departLane="-793339796#2_2" departPos="5.10" departPosLat="0.00" departSpeed="27.37" departDelay="0.00" arrival="106.90" arrivalLane="-440471861#0_2" arrivalPos="31.52" arrivalPosLat="0.00" arrivalSpeed="27.27" duration="98.00" routeLength="1081.27" waitingTime="48.60" waitingCount="1" stopTime="0.00" timeLoss="58.46" rerouteNo="1" devices="tripinfo_A2_1.2 routing_A2_1.2" vType="car" speedFactor="0.99" vaporized=""/>
    <tripinfo id="A2_1.1" depart="6.90" departLane="-793339796#2_1" departPos="5.10" departPosLat="0.00" departSpeed="27.02" departDelay="0.00" arrival="108.10" arrivalLane="-440471861#0_1" arrivalPos="31.52" arrivalPosLat="-0.00" arrivalSpeed="27.01" duration="101.20" routeLength="1081.27" waitingTime="46.60" waitingCount="1" stopTime="0.00" timeLoss="61.12" rerouteNo="1" devices="tripinfo_A2_1.1 routing_A2_1.1" vType="car" speedFactor="0.97" vaporized=""/>
    <personinfo id="pf_2.5" depart="75.00" type="ped" speedFactor="0.93" duration="33.50" waitingTime="7.10" timeLoss="9.75" traveltime="33.50">
        <walk depart="75.00" departPos="15.09" arrival="108.50" arrivalPos="3.44" duration="33.50" routeLength="30.72" timeLoss="9.75" maxSpeed="1.29" waitingTime="7.10"/>
    </personinfo>
    <tripinfo id="D2_1.0" depart="25.10" departLane="140483224#1_1" departPos="2.30" departPosLat="0.00" departSpeed="28.06" departDelay="0.00" arrival="110.50" arrivalLane="-145894807#0_1" arrivalPos="260.95" arrivalPosLat="0.00" arrivalSpeed="8.33" duration="85.40" routeLength="1095.56" waitingTime="0.00" waitingCount="0" stopTime="0.00" timeLoss="0.84" rerouteNo="1" devices="tripinfo_D2_1.0 routing_D2_1.0" vType="tricycle" speedFactor="1.01" vaporized=""/>
    <personinfo id="pf_2.6" depart="90.00" type="ped" speedFactor="1.18" duration="20.70" waitingTime="0.00" timeLoss="1.93" traveltime="20.70">
        <walk depart="90.00" departPos="15.09" arrival="110.70" arrivalPos="3.44" duration="20.70" routeLength="30.72" timeLoss="1.93" maxSpeed="1.64" waitingTime="0.00"/>
    </personinfo>
    <tripinfo id="A3_1.0" depart="15.20" departLane="-793339796#2_2" departPos="8.10" departPosLat="0.00" departSpeed="27.78" departDelay="0.00" arrival="115.70" arrivalLane="-140483224#1_2" arrivalPos="64.04" arrivalPosLat="0.00" arrivalSpeed="27.73" duration="100.50" routeLength="1077.94" waitingTime="38.60" waitingCount="1" stopTime="0.00" timeLoss="60.18" rerouteNo="1" devices="tripinfo_A3_1.0 routing_A3_1.0" vType="jeep" speedFactor="1.00" vaporized=""/>
    <tripinfo id="A2_1.3" depart="16.40" departLane="-793339796#2_1" departPos="7.20" departPosLat="0.00" departSpeed="26.64" departDelay="0.00" arrival="115.70" arrivalLane="-440471861#0_1" arrivalPos="31.52" arrivalPosLat="0.00" arrivalSpeed="26.60" duration="99.30" routeLength="1079.17" waitingTime="36.90" waitingCount="1" stopTime="0.00" timeLoss="58.72" rerouteNo="1" devices="tripinfo_A2_1.3 routing_A2_1.3" vType="truck" speedFactor="0.96" vaporized=""/>
    <tripinfo id="A2_1.5" depart="46.90" departLane="-793339796#2_2" departPos="5.10" departPosLat="0.00" departSpeed="24.66" departDelay="0.30" arrival="115.80" arrivalLane="-440471861#0_2" arrivalPos="31.52" arrivalPosLat="0.00" arrivalSpeed="24.62" duration="68.90" routeLength="1081.27" waitingTime="12.20" waitingCount="3" stopTime="0.00" timeLoss="25.02" rerouteNo="1" devices="tripinfo_A2_1.5 routing_A2_1.5" vType="car" speedFactor="0.89" vaporized=""/>
    <tripinfo id="A3_1.1" depart="31.00" departLane="-793339796#2_1" departPos="12.10" departPosLat="0.00" departSpeed="27.78" departDelay="0.00" arrival="117.20" arrivalLane="-140483224#1_2" arrivalPos="64.04" arrivalPosLat="0.00" arrivalSpeed="27.73" duration="86.20" routeLength="1073.94" waitingTime="23.70" waitingCount="1" stopTime="0.00" timeLoss="46.04" rerouteNo="1" devices="tripinfo_A3_1.1 routing_A3_1.1" vType="bus" speedFactor="1.00" vaporized=""/>
    <tripinfo id="A2_1.4" depart="46.90" departLane="-793339796#2_1" departPos="5.10" departPosLat="0.00" departSpeed="28.29" departDelay="5.50" arrival="117.20" arrivalLane="-440471861#0_1" arrivalPos="31.52" arrivalPosLat="0.00" arrivalSpeed="27.80" duration="70.30" routeLength="1081.27" waitingTime="8.70" waitingCount="1" stopTime="0.00" timeLoss="32.00" rerouteNo="1" devices="tripinfo_A2_1.4 routing_A2_1.4" vType="car" speedFactor="1.02" vaporized=""/>
    <tripinfo id="A2_1.6" depart="48.10" departLane="-793339796#2_1" departPos="5.10" departPosLat="0.00" departSpeed="27.03" departDelay="0.00" arrival="118.40" arrivalLane="-440471861#0_1" arrivalPos="31.52" arrivalPosLat="-0.00" arrivalSpeed="26.91" duration="70.30" routeLength="1081.27" waitingTime="12.80" waitingCount="1" stopTime="0.00" timeLoss="30.22" rerouteNo="1" devices="tripinfo_A2_1.6 routing_A2_1.6" vType="car" speedFactor="0.97" vaporized=""/>
    <tripinfo id="A2_1.7" depart="48.40" departLane="-793339796#2_2" departPos="5.10" departPosLat="0.00" departSpeed="21.17" departDelay="0.00" arrival="119.90" arrivalLane="-440471861#0_2" arrivalPos="31.52" arrivalPosLat="0.00" arrivalSpeed="21.12" duration="71.50" routeLength="1081.27" waitingTime="4.80" waitingCount="1" stopTime="0.00" timeLoss="20.34" rerouteNo="1" devices="tripinfo_A2_1.7 routing_A2_1.7" vType="car" speedFactor="0.76" vaporized=""/>
    <tripinfo id="A2_1.8" depart="62.70" departLane="-793339796#2_1" departPos="5.10" departPosLat="0.00" departSpeed="27.81" departDelay="8.60" arrival="121.20" arrivalLane="-440471861#0_1" arrivalPos="31.52" arrivalPosLat="-0.00" arrivalSpeed="24.09" duration="58.50" routeLength="1081.27" waitingTime="0.00" waitingCount="0" stopTime="0.00" timeLoss="19.58" rerouteNo="1" devices="tripinfo_A2_1.8 routing_A2_1.8" vType="car" speedFactor="1.00" vaporized=""/>
    <tripinfo id="A3_1.2" depart="62.70" departLane="-793339796#2_2" departPos="7.20" departPosLat="0.00" departSpeed="24.90" departDelay="1.70" arrival="122.70" arrivalLane="-140483224#1_2" arrivalPos="64.04" arrivalPosLat="0.00" arrivalSpeed="24.87" duration="60.00" routeLength="1078.84" waitingTime="0.00" waitingCount="0" stopTime="0.00" timeLoss="14.94" rerouteNo="1" devices="tripinfo_A3_1.2 routing_A3_1.2" vType="truck" speedFactor="0.90" vaporized=""/>
    <tripinfo id="D1_1.1" depart="47.90" departLane="140483224#1_1" departPos="5.10" departPosLat="0.00" departSpeed="31.78" departDelay="0.00" arrival="123.70" arrivalLane="-793339796#2_2" arrivalPos="82.50" arrivalPosLat="0.00" arrivalSpeed="31.75" duration="75.80" routeLength="1648.38" waitingTime="0.00" waitingCount="0" stopTime="0.00" timeLoss="21.86" rerouteNo="1" devices="tripinfo_D1_1.1 routing_D1_1.1" vType="car" speedFactor="1.14" vaporized=""/>
    <tripinfo id="D2_1.1" depart="39.10" departLane="140483224#1_1" departPos="8.10" departPosLat="0.00" departSpeed="27.78" departDelay="0.00" arrival="126.10" arrivalLane="-145894807#0_1" arrivalPos="260.95" arrivalPosLat="0.00" arrivalSpeed="8.28" duration="87.00" routeLength="1089.76" waitingTime="0.00" waitingCount="0" stopTime="0.00" timeLoss="1.84" rerouteNo="1" devices="tripinfo_D2_1.1 routing_D2_1.1" vType="jeep" speedFactor="1.00" vaporized=""/>
    <personinfo id="pf_2.7" depart="105.00" type="ped" speedFactor="1.15" duration="22.10" waitingTime="0.70" timeLoss="2.94" traveltime="22.10">
        <walk depart="105.00" departPos="15.09" arrival="127.10" arrivalPos="3.44" duration="22.10" routeLength="30.72" timeLoss="2.94" maxSpeed="1.60" waitingTime="0.70"/>
    </personinfo>
    <tripinfo id="B2_1.0" depart="13.90" departLane="-361257727#0_1" departPos="2.30" departPosLat="0.00" departSpeed="8.68" departDelay="0.00" arrival="130.40" arrivalLane="-440471861#0_1" arrivalPos="31.52" arrivalPosLat="-0.00" arrivalSpeed="28.91" duration="116.50" routeLength="1400.48" waitingTime="0.00" waitingCount="0" stopTime="0.00" timeLoss="3.78" rerouteNo="1" devices="tripinfo_B2_1.0 routing_B2_1.0" vType="motorcycle" speedFactor="1.04" vaporized=""/>
    <personinfo id="pf_4.1" depart="15.00" type="ped" speedFactor="1.02" duration="116.90" waitingTime="0.00" timeLoss="11.71" traveltime="116.90">
        <walk depart="15.00" departPos="25.00" arrival="71.80" arrivalPos="29.11" duration="56.80" routeLength="72.15" timeLoss="5.64" maxSpeed="1.41" waitingTime="0.00"/>
        <walk depart="71.80" departPos="29.11" arrival="131.90" arrivalPos="29.05" duration="60.10" routeLength="76.20" timeLoss="6.07" maxSpeed="1.41" waitingTime="0.00"/>
    </personinfo>
    <personinfo id="pf_2.8" depart="120.00" type="ped" speedFactor="1.01" duration="24.10" waitingTime="0.00" timeLoss="2.09" traveltime="24.10">
        <walk depart="120.00" departPos="15.09" arrival="144.10" arrivalPos="3.44" duration="24.10" routeLength="30.72" timeLoss="2.09" maxSpeed="1.40" waitingTime="0.00"/>
    </personinfo>
    <personinfo id="pf_4.2" depart="30.00" type="ped" speedFactor="1.01" duration="118.20" waitingTime="0.50" timeLoss="12.52" traveltime="118.20">
        <walk depart="30.00" departPos="25.00" arrival="87.80" arrivalPos="29.11" duration="57.80" routeLength="72.15" timeLoss="6.40" maxSpeed="1.40" waitingTime="0.50"/>
        <walk depart="87.80" departPos="29.11" arrival="148.20" arrivalPos="29.05" duration="60.40" routeLength="76.20" timeLoss="6.12" maxSpeed="1.40" waitingTime="0.00"/>
    </personinfo>
    <personinfo id="pf_2.9" depart="135.00" type="ped" speedFactor="1.17" duration="20.90" waitingTime="0.00" timeLoss="2.02" traveltime="20.90">
        <walk depart="135.00" departPos="15.09" arrival="155.90" arrivalPos="3.44" duration="20.90" routeLength="30.72" timeLoss="2.02" maxSpeed="1.63" waitingTime="0.00"/>
    </personinfo>
    <personinfo id="pf_4.4" depart="60.00" type="ped" speedFactor="1.05" duration="122.00" waitingTime="8.50" timeLoss="19.93" traveltime="122.00">
        <walk depart="60.00" departPos="25.00" arrival="123.80" arrivalPos="29.11" duration="63.80" routeLength="72.15" timeLoss="14.16" maxSpeed="1.45" waitingTime="8.50"/>
        <walk depart="123.80" departPos="29.11" arrival="182.00" arrivalPos="29.05" duration="58.20" routeLength="76.20" timeLoss="5.77" maxSpeed="1.45" waitingTime="0.00"/>
    </personinfo>
    <personinfo id="pf_4.5" depart="75.00" type="ped" speedFactor="1.12" duration="107.40" waitingTime="0.40" timeLoss="12.41" traveltime="107.40">
        <walk depart="75.00" departPos="25.00" arrival="126.40" arrivalPos="29.11" duration="51.40" routeLength="72.15" timeLoss="5.20" maxSpeed="1.56" waitingTime="0.00"/>
        <walk depart="126.40" departPos="29.11" arrival="182.40" arrivalPos="29.05" duration="56.00" routeLength="76.20" timeLoss="7.21" maxSpeed="1.56" waitingTime="0.40"/>
    </personinfo>
    <personinfo id="pf_2.10" depart="150.00" type="ped" speedFactor="0.99" duration="33.00" waitingTime="8.00" timeLoss="10.76" traveltime="33.00">
        <walk depart="150.00" departPos="15.09" arrival="183.00" arrivalPos="3.44" duration="33.00" routeLength="30.72" timeLoss="10.76" maxSpeed="1.38" waitingTime="8.00"/>
    </personinfo>
    <tripinfo id="B2_1.1" depart="62.00" departLane="-361257727#0_1" departPos="5.10" departPosLat="0.00" departSpeed="8.32" departDelay="0.00" arrival="184.80" arrivalLane="-440471861#0_1" arrivalPos="31.52" arrivalPosLat="-0.00" arrivalSpeed="27.69" duration="122.80" routeLength="1397.68" waitingTime="0.00" waitingCount="0" stopTime="0.00" timeLoss="5.64" rerouteNo="1" devices="tripinfo_B2_1.1 routing_B2_1.1" vType="car" speedFactor="1.00" vaporized=""/>
    <tripinfo id="A1_1.0" depart="106.90" departLane="-793339796#2_1" departPos="8.10" departPosLat="0.00" departSpeed="27.78" departDelay="22.90" arrival="200.90" arrivalLane="-145894807#0_1" arrivalPos="260.95" arrivalPosLat="0.00" arrivalSpeed="8.28" duration="94.00" routeLength="1053.72" waitingTime="0.00" waitingCount="0" stopTime="0.00" timeLoss="4.55" rerouteNo="1" devices="tripinfo_A1_1.0 routing_A1_1.0" vType="jeep" speedFactor="1.00" vaporized=""/>
    <personinfo id="pf_2.11" depart="165.00" type="ped" speedFactor="1.02" duration="45.00" waitingTime="20.90" timeLoss="23.31" traveltime="45.00">
        <walk depart="165.00" departPos="15.09" arrival="210.00" arrivalPos="3.44" duration="45.00" routeLength="30.72" timeLoss="23.31" maxSpeed="1.42" waitingTime="20.90"/>
    </personinfo>
    <personinfo id="pf_2.12" depart="180.00" type="ped" speedFactor="0.97" duration="30.90" waitingTime="5.60" timeLoss="8.17" traveltime="30.90">
        <walk depart="180.00" departPos="15.09" arrival="210.90" arrivalPos="3.44" duration="30.90" routeLength="30.72" timeLoss="8.17" maxSpeed="1.35" waitingTime="5.60"/>
    </personinfo>
    <tripinfo id="C3_1.0" depart="6.90" departLane="440471861#0_1" departPos="2.30" departPosLat="0.00" departSpeed="21.32" departDelay="0.00" arrival="212.30" arrivalLane="-140483224#1_1" arrivalPos="64.04" arrivalPosLat="-0.00" arrivalSpeed="29.11" duration="205.40" routeLength="1055.58" waitingTime="159.90" waitingCount="1" stopTime="0.00" timeLoss="168.19" rerouteNo="1" devices="tripinfo_C3_1.0 routing_C3_1.0" vType="motorcycle" speedFactor="1.06" vaporized=""/>
    <tripinfo id="C1_1.0" depart="6.60" departLane="440471861#0_1" departPos="5.10" departPosLat="0.00" departSpeed="27.96" departDelay="0.00" arrival="212.50" arrivalLane="-793339796#2_1" arrivalPos="82.50" arrivalPosLat="-0.00" arrivalSpeed="27.88" duration="205.90" routeLength="1653.99" waitingTime="126.90" waitingCount="1" stopTime="0.00" timeLoss="145.63" rerouteNo="1" devices="tripinfo_C1_1.0 routing_C1_1.0" vType="car" speedFactor="1.01" vaporized=""/>
    <personinfo id="pf_2.13" depart="195.00" type="ped" speedFactor="1.18" duration="20.70" waitingTime="0.00" timeLoss="1.95" traveltime="20.70">
        <walk depart="195.00" departPos="15.09" arrival="215.70" arrivalPos="3.44" duration="20.70" routeLength="30.72" timeLoss="1.95" maxSpeed="1.64" waitingTime="0.00"/>
    </personinfo>
    <tripinfo id="C1_1.1" depart="30.30" departLane="440471861#0_1" departPos="5.10" departPosLat="0.00" departSpeed="26.25" departDelay="0.00" arrival="216.70" arrivalLane="-793339796#2_2" arrivalPos="82.50" arrivalPosLat="0.00" arrivalSpeed="26.19" duration="186.40" routeLength="1653.99" waitingTime="98.00" waitingCount="1" stopTime="0.00" timeLoss="122.27" rerouteNo="1" devices="tripinfo_C1_1.1 routing_C1_1.1" vType="car" speedFactor="0.94" vaporized=""/>
    <personinfo id="pf_4.3" depart="45.00" type="ped" speedFactor="0.69" duration="171.90" waitingTime="0.00" timeLoss="17.19" traveltime="171.90">
        <walk depart="45.00" departPos="25.00" arrival="128.40" arrivalPos="29.11" duration="83.40" routeLength="72.15" timeLoss="8.16" maxSpeed="0.96" waitingTime="0.00"/>
        <walk depart="128.40" departPos="29.11" arrival="216.90" arrivalPos="29.05" duration="88.50" routeLength="76.20" timeLoss="9.03" maxSpeed="0.96" waitingTime="0.00"/>
    </personinfo>
    <tripinfo id="A1_1.1" depart="123.20" departLane="-793339796#2_1" departPos="12.10" departPosLat="0.00" departSpeed="27.78" departDelay="12.00" arrival="216.90" arrivalLane="-145894807#0_1" arrivalPos="260.95" arrivalPosLat="0.00" arrivalSpeed="8.28" duration="93.70" routeLength="1049.72" waitingTime="0.00" waitingCount="0" stopTime="0.00" timeLoss="4.42" rerouteNo="1" devices="tripinfo_A1_1.1 routing_A1_1.1" vType="bus" speedFactor="1.00" vaporized=""/>
    <personinfo id="pf_4.6" depart="90.00" type="ped" speedFactor="1.01" duration="128.20" waitingTime="9.70" timeLoss="21.98" traveltime="128.20">
        <walk depart="90.00" departPos="25.00" arrival="147.80" arrivalPos="29.11" duration="57.80" routeLength="72.15" timeLoss="6.14" maxSpeed="1.40" waitingTime="0.00"/>
        <walk depart="147.80" departPos="29.11" arrival="218.20" arrivalPos="29.05" duration="70.40" routeLength="76.20" timeLoss="15.84" maxSpeed="1.40" waitingTime="9.70"/>
    </personinfo>
    <tripinfo id="C1_1.2" depart="35.30" departLane="440471861#0_1" departPos="2.30" departPosLat="0.00" departSpeed="31.62" departDelay="0.00" arrival="220.20" arrivalLane="-793339796#2_1" arrivalPos="82.50" arrivalPosLat="-0.00" arrivalSpeed="30.97" duration="184.90" routeLength="1656.79" waitingTime="95.50" waitingCount="1" stopTime="0.00" timeLoss="131.51" rerouteNo="1" devices="tripinfo_C1_1.2 routing_C1_1.2" vType="tricycle" speedFactor="1.14" vaporized=""/>
    <personinfo id="pf_4.7" depart="105.00" type="ped" speedFactor="1.01" duration="117.60" waitingTime="0.00" timeLoss="11.57" traveltime="117.60">
        <walk depart="105.00" departPos="25.00" arrival="162.20" arrivalPos="29.11" duration="57.20" routeLength="72.15" timeLoss="5.63" maxSpeed="1.40" waitingTime="0.00"/>
        <walk depart="162.20" departPos="29.11" arrival="222.60" arrivalPos="29.05" duration="60.40" routeLength="76.20" timeLoss="5.94" maxSpeed="1.40" waitingTime="0.00"/>
    </personinfo>
    <tripinfo id="C3_1.1" depart="8.60" departLane="440471861#0_1" departPos="12.10" departPosLat="0.00" departSpeed="16.81" departDelay="0.00" arrival="225.40" arrivalLane="-140483224#1_2" arrivalPos="64.04" arrivalPosLat="0.00" arrivalSpeed="27.72" duration="216.80" routeLength="1045.78" waitingTime="152.60" waitingCount="1" stopTime="0.00" timeLoss="177.76" rerouteNo="1" devices="tripinfo_C3_1.1 routing_C3_1.1" vType="bus" speedFactor="1.00" vaporized=""/>
    <tripinfo id="C3_1.2" depart="22.80" departLane="440471861#0_1" departPos="7.20" departPosLat="0.00" departSpeed="27.71" departDelay="0.00" arrival="225.90" arrivalLane="-140483224#1_1" arrivalPos="64.04" arrivalPosLat="-0.00" arrivalSpeed="27.70" duration="203.10" routeLength="1050.68" waitingTime="142.30" waitingCount="1" stopTime="0.00" timeLoss="163.81" rerouteNo="1" devices="tripinfo_C3_1.2 routing_C3_1.2" vType="truck" speedFactor="1.00" vaporized=""/>
    <tripinfo id="C3_1.3" depart="47.20" departLane="440471861#0_1" departPos="2.30" departPosLat="0.00" departSpeed="29.34" departDelay="0.00" arrival="226.70" arrivalLane="-140483224#1_2" arrivalPos="64.04" arrivalPosLat="0.00" arrivalSpeed="29.07" duration="179.50" routeLength="1055.58" waitingTime="121.20" waitingCount="1" stopTime="0.00" timeLoss="142.24" rerouteNo="1" devices="tripinfo_C3_1.3 routing_C3_1.3" vType="motorcycle" speedFactor="1.06" vaporized=""/>
    <tripinfo id="C3_1.4" depart="51.90" departLane="440471861#0_1" departPos="5.10" departPosLat="0.00" departSpeed="29.67" departDelay="0.00" arrival="227.20" arrivalLane="-140483224#1_1" arrivalPos="64.04" arrivalPosLat="-0.00" arrivalSpeed="29.63" duration="175.30" routeLength="1052.78" waitingTime="115.70" waitingCount="1" stopTime="0.00" timeLoss="138.52" rerouteNo="1" devices="tripinfo_C3_1.4 routing_C3_1.4" vType="car" speedFactor="1.07" vaporized=""/>
    <tripinfo id="C3_1.5" depart="54.60" departLane="440471861#0_1" departPos="7.20" departPosLat="0.00" departSpeed="28.29" departDelay="0.00" arrival="231.10" arrivalLane="-140483224#1_2" arrivalPos="64.04" arrivalPosLat="0.00" arrivalSpeed="28.24" duration="176.50" routeLength="1050.68" waitingTime="112.50" waitingCount="1" stopTime="0.00" timeLoss="137.97" rerouteNo="1" devices="tripinfo_C3_1.5 routing_C3_1.5" vType="truck" speedFactor="1.02" vaporized=""/>
    <personinfo id="pf_2.14" depart="210.00" type="ped" speedFactor="1.10" duration="22.30" waitingTime="0.00" timeLoss="2.23" traveltime="22.30">
        <walk depart="210.00" departPos="15.09" arrival="232.30" arrivalPos="3.44" duration="22.30" routeLength="30.72" timeLoss="2.23" maxSpeed="1.53" waitingTime="0.00"/>
    </personinfo>
    <tripinfo id="C2_1.0" depart="40.30" departLane="440471861#0_2" departPos="5.10" departPosLat="0.00" departSpeed="26.65" departDelay="0.00" arrival="233.90" arrivalLane="-145894807#0_1" arrivalPos="260.95" arrivalPosLat="0.00" arrivalSpeed="7.97" duration="193.60" routeLength="1082.06" waitingTime="90.00" waitingCount="1" stopTime="0.00" timeLoss="104.67" rerouteNo="1" devices="tripinfo_C2_1.0 routing_C2_1.0" vType="car" speedFactor="0.96" vaporized=""/>
    <tripinfo id="C3_1.6" depart="70.30" departLane="440471861#0_1" departPos="5.10" departPosLat="0.00" departSpeed="23.65" departDelay="0.00" arrival="234.00" arrivalLane="-140483224#1_2" arrivalPos="64.04" arrivalPosLat="0.00" arrivalSpeed="23.64" duration="163.70" routeLength="1052.78" waitingTime="93.50" waitingCount="2" stopTime="0.00" timeLoss="117.59" rerouteNo="1" devices="tripinfo_C3_1.6 routing_C3_1.6" vType="car" speedFactor="0.85" vaporized=""/>
    <personinfo id="pf_1.0" depart="0.00" type="ped" speedFactor="1.06" duration="234.70" waitingTime="0.00" timeLoss="23.00" traveltime="234.70">
        <walk depart="0.00" departPos="25.00" arrival="234.70" arrivalPos="3.44" duration="234.70" routeLength="311.67" timeLoss="23.00" maxSpeed="1.47" waitingTime="0.00"/>
    </personinfo>
    <tripinfo id="C3_1.8" depart="109.30" departLane="440471861#0_1" departPos="5.10" departPosLat="0.00" departSpeed="27.88" departDelay="0.00" arrival="235.70" arrivalLane="-140483224#1_2" arrivalPos="64.04" arrivalPosLat="0.00" arrivalSpeed="27.81" duration="126.40" routeLength="1052.78" waitingTime="53.30" waitingCount="2" stopTime="0.00" timeLoss="87.32" rerouteNo="1" devices="tripinfo_C3_1.8 routing_C3_1.8" vType="car" speedFactor="1.00" vaporized=""/>
    <tripinfo id="C2_1.1" depart="54.60" departLane="440471861#0_2" departPos="5.10" departPosLat="0.00" departSpeed="27.21" departDelay="0.00" arrival="235.80" arrivalLane="-145894807#0_1" arrivalPos="260.95" arrivalPosLat="0.00" arrivalSpeed="8.10" duration="181.20" routeLength="1082.06" waitingTime="76.90" waitingCount="1" stopTime="0.00" timeLoss="94.11" rerouteNo="1" devices="tripinfo_C2_1.1 routing_C2_1.1" vType="car" speedFactor="0.98" vaporized=""/>
    <tripinfo id="C1_1.7" depart="125.70" departLane="440471861#0_2" departPos="5.10" departPosLat="0.00" departSpeed="24.06" departDelay="0.00" arrival="237.30" arrivalLane="-793339796#2_2" arrivalPos="82.50" arrivalPosLat="-0.00" arrivalSpeed="24.03" duration="111.60" routeLength="1653.99" waitingTime="9.60" waitingCount="1" stopTime="0.00" timeLoss="41.60" rerouteNo="1" devices="tripinfo_C1_1.7 routing_C1_1.7" vType="car" speedFactor="0.87" vaporized=""/>
    <tripinfo id="C3_1.7" depart="87.10" departLane="440471861#0_1" departPos="8.10" departPosLat="0.00" departSpeed="27.78" departDelay="0.00" arrival="237.40" arrivalLane="-140483224#1_1" arrivalPos="64.04" arrivalPosLat="-0.00" arrivalSpeed="27.77" duration="150.30" routeLength="1049.78" waitingTime="75.90" waitingCount="3" stopTime="0.00" timeLoss="111.08" rerouteNo="1" devices="tripinfo_C3_1.7 routing_C3_1.7" vType="jeep" speedFactor="1.00" vaporized=""/>
    <tripinfo id="C3_1.9" depart="125.10" departLane="440471861#0_1" departPos="5.10" departPosLat="0.00" departSpeed="29.43" departDelay="0.00" arrival="238.70" arrivalLane="-140483224#1_1" arrivalPos="64.04" arrivalPosLat="-0.00" arrivalSpeed="29.38" duration="113.60" routeLength="1052.78" waitingTime="37.60" waitingCount="2" stopTime="0.00" timeLoss="76.49" rerouteNo="1" devices="tripinfo_C3_1.9 routing_C3_1.9" vType="car" speedFactor="1.06" vaporized=""/>
    <tripinfo id="C3_1.10" depart="132.90" departLane="440471861#0_1" departPos="7.20" departPosLat="0.00" departSpeed="28.30" departDelay="0.00" arrival="242.30" arrivalLane="-140483224#1_2" arrivalPos="64.04" arrivalPosLat="0.00" arrivalSpeed="29.33" duration="109.40" routeLength="1050.68" waitingTime="27.80" waitingCount="1" stopTime="0.00" timeLoss="72.33" rerouteNo="1" devices="tripinfo_C3_1.10 routing_C3_1.10" vType="truck" speedFactor="1.06" vaporized=""/>
    <tripinfo id="B2_1.2" depart="113.40" departLane="-361257727#0_1" departPos="7.20" departPosLat="0.00" departSpeed="8.10" departDelay="0.00" arrival="243.70" arrivalLane="-440471861#0_1" arrivalPos="31.52" arrivalPosLat="-0.00" arrivalSpeed="26.97" duration="130.30" routeLength="1395.58" waitingTime="0.00" waitingCount="0" stopTime="0.00" timeLoss="10.10" rerouteNo="1" devices="tripinfo_B2_1.2 routing_B2_1.2" vType="truck" speedFactor="0.97" vaporized=""/>
    <tripinfo id="C1_1.3" depart="56.20" departLane="440471861#0_1" departPos="8.10" departPosLat="0.00" departSpeed="27.78" departDelay="0.00" arrival="245.90" arrivalLane="-793339796#2_2" arrivalPos="82.50" arrivalPosLat="0.00" arrivalSpeed="24.82" duration="189.70" routeLength="1650.99" waitingTime="75.00" waitingCount="2" stopTime="0.00" timeLoss="129.10" rerouteNo="1" devices="tripinfo_C1_1.3 routing_C1_1.3" vType="jeep" speedFactor="1.00" vaporized=""/>
    <tripinfo id="C1_1.4" depart="57.10" departLane="440471861#0_1" departPos="8.10" departPosLat="0.00" departSpeed="26.01" departDelay="0.00" arrival="249.70" arrivalLane="-793339796#2_2" arrivalPos="82.50" arrivalPosLat="0.00" arrivalSpeed="24.48" duration="192.60" routeLength="1650.99" waitingTime="72.60" waitingCount="1" stopTime="0.00" timeLoss="132.03" rerouteNo="1" devices="tripinfo_C1_1.4 routing_C1_1.4" vType="jeep" speedFactor="1.00" vaporized=""/>