<?xml version="1.0" encoding="UTF-8"?>

<!-- generated on 2025-11-26 18:28:14 by Eclipse SUMO GUI Version 1.24.0
<sumoConfiguration xmlns:xsi="http://www.w3.org/2001/XMLSchema-instance" xsi:noNamespaceSchemaLocation="http://sumo.dlr.de/xsd/sumoConfiguration.xsd">

    <input>
        <net-file value="Olivarez_traci\network/map1.net.xml"/>
        <route-files value="Olivarez_traci\demand/flows_normal_traffic.rou.xml"/>
        <additional-files value="Olivarez_traci\additionals/map.poly.xml,Olivarez_traci\ additionals/detectors.add.xml"/>
    </input>

    <output>
        <tripinfo-output value="Olivarez_traci\output_NoDRL\SP_NoDRL_trips.xml"/>
        <statistic-output value="Olivarez_traci\output_NoDRL\SP_NoDRL_stats.xml"/>
    </output>

    <time>
        <begin value="0"/>
        <end value="10800"/>
        <step-length value="0.1"/>
    </time>

    <processing>
        <lateral-resolution value="0.1"/>
        <collision.action value="none"/>
        <collision.check-junctions value="false"/>
        <collision.mingap-factor value="0"/>
    </processing>

    <report>
        <no-warnings value="true"/>
    </report>

    <traci_server>
        <remote-port value="51694"/>
    </traci_server>

    <gui_only>
        <delay value="0"/>
    </gui_only>

</sumoConfiguration>
-->

<tripinfos xmlns:xsi="http://www.w3.org/2001/XMLSchema-instance" xsi:noNamespaceSchemaLocation="http://sumo.dlr.de/xsd/tripinfo_file.xsd">
    <personinfo id="pf_2.0" depart="0.00" type="ped" speedFactor="1.06" duration="23.20" waitingTime="0.00" timeLoss="2.43" traveltime="23.20">
        <walk depart="0.00" departPos="15.09" arrival="23.20" arrivalPos="3.44" duration="23.20" routeLength="30.72" timeLoss="2.43" maxSpeed="1.48" waitingTime="0.00"/>
    </personinfo>
    <tripinfo id="A2_1.0" depart="8.90" departLane="-793339796#2_1" departPos="5.10" departPosLat="0.00" departSpeed="23.90" departDelay="0.00" arrival="72.80" arrivalLane="-440471861#0_1" arrivalPos="31.52" arrivalPosLat="0.00" arrivalSpeed="23.84" duration="63.90" routeLength="1081.27" waitingTime="0.00" waitingCount="0" stopTime="0.00" timeLoss="18.61" rerouteNo="1" devices="tripinfo_A2_1.0 routing_A2_1.0" vType="car" speedFactor="0.86" vaporized=""/>
    <tripinfo id="A2_1.1" depart="16.40" departLane="-793339796#2_1" departPos="5.10" departPosLat="0.00" departSpeed="26.16" departDelay="0.00" arrival="83.60" arrivalLane="-440471861#0_1" arrivalPos="31.52" arrivalPosLat="-0.00" arrivalSpeed="27.47" duration="67.20" routeLength="1081.27" waitingTime="0.80" waitingCount="1" stopTime="0.00" timeLoss="28.00" rerouteNo="1" devices="tripinfo_A2_1.1 routing_A2_1.1" vType="car" speedFactor="0.99" vaporized=""/>
    <tripinfo id="D1_1.0" depart="1.20" departLane="140483224#1_1" departPos="5.10" departPosLat="0.00" departSpeed="27.72" departDelay="0.00" arrival="109.40" arrivalLane="-793339796#2_2" arrivalPos="82.50" arrivalPosLat="0.00" arrivalSpeed="27.70" duration="108.20" routeLength="1648.38" waitingTime="11.20" waitingCount="3" stopTime="0.00" timeLoss="46.41" rerouteNo="1" devices="tripinfo_D1_1.0 routing_D1_1.0" vType="car" speedFactor="1.00" vaporized=""/>
    <personinfo id="pf_4.0" depart="0.00" type="ped" speedFactor="1.07" duration="110.80" waitingTime="0.00" timeLoss="11.00" traveltime="110.80">
        <walk depart="0.00" departPos="25.00" arrival="54.10" arrivalPos="29.11" duration="54.10" routeLength="72.15" timeLoss="5.56" maxSpeed="1.49" waitingTime="0.00"/>
        <walk depart="54.10" departPos="29.11" arrival="110.80" arrivalPos="29.05" duration="56.70" routeLength="76.20" timeLoss="5.44" maxSpeed="1.49" waitingTime="0.00"/>
    </personinfo>
    <personinfo id="pf_2.2" depart="72.00" type="ped" speedFactor="0.97" duration="49.80" waitingTime="24.40" timeLoss="26.95" traveltime="49.80">
        <walk depart="72.00" departPos="15.09" arrival="121.80" arrivalPos="3.44" duration="49.80" routeLength="30.72" timeLoss="26.95" maxSpeed="1.34" waitingTime="24.40"/>
    </personinfo>
    <personinfo id="pf_2.1" depart="36.00" type="ped" speedFactor="0.96" duration="86.10" waitingTime="60.30" timeLoss="62.98" traveltime="86.10">
        <walk depart="36.00" departPos="15.09" arrival="122.10" arrivalPos="3.44" duration="86.10" routeLength="30.72" timeLoss="62.98" maxSpeed="1.33" waitingTime="60.30"/>
    </personinfo>
    <personinfo id="pf_2.3" depart="108.00" type="ped" speedFactor="0.95" duration="25.80" waitingTime="0.00" timeLoss="2.58" traveltime="25.80">
        <walk depart="108.00" departPos="15.09" arrival="133.80" arrivalPos="3.44" duration="25.80" routeLength="30.72" timeLoss="2.58" maxSpeed="1.32" waitingTime="0.00"/>
    </personinfo>
    <tripinfo id="C3_1.0" depart="22.80" departLane="440471861#0_1" departPos="2.30" departPosLat="0.00" departSpeed="30.91" departDelay="0.00" arrival="161.20" arrivalLane="-140483224#1_1" arrivalPos="64.04" arrivalPosLat="0.00" arrivalSpeed="30.88" duration="138.40" routeLength="1055.58" waitingTime="94.20" waitingCount="1" stopTime="0.00" timeLoss="103.04" rerouteNo="1" devices="tripinfo_C3_1.0 routing_C3_1.0" vType="motorcycle" speedFactor="1.11" vaporized=""/>
    <personinfo id="pf_4.1" depart="36.00" type="ped" speedFactor="0.94" duration="126.50" waitingTime="0.00" timeLoss="12.53" traveltime="126.50">
        <walk depart="36.00" departPos="25.00" arrival="97.40" arrivalPos="29.11" duration="61.40" routeLength="72.15" timeLoss="5.97" maxSpeed="1.30" waitingTime="0.00"/>
        <walk depart="97.40" departPos="29.11" arrival="162.50" arrivalPos="29.05" duration="65.10" routeLength="76.20" timeLoss="6.56" maxSpeed="1.30" waitingTime="0.00"/>
    </personinfo>
    <tripinfo id="C3_1.1" depart="87.10" departLane="440471861#0_1" departPos="5.10" departPosLat="0.00" departSpeed="24.05" departDelay="0.00" arrival="173.90" arrivalLane="-140483224#1_2" arrivalPos="64.04" arrivalPosLat="0.00" arrivalSpeed="23.93" duration="86.80" routeLength="1052.78" waitingTime="17.60" waitingCount="1" stopTime="0.00" timeLoss="41.44" rerouteNo="1" devices="tripinfo_C3_1.1 routing_C3_1.1" vType="car" speedFactor="0.87" vaporized=""/>
    <personinfo id="pf_4.2" depart="72.00" type="ped" speedFactor="0.98" duration="121.00" waitingTime="0.00" timeLoss="12.09" traveltime="121.00">
        <walk depart="72.00" departPos="25.00" arrival="130.90" arrivalPos="29.11" duration="58.90" routeLength="72.15" timeLoss="5.93" maxSpeed="1.36" waitingTime="0.00"/>
        <walk depart="130.90" departPos="29.11" arrival="193.00" arrivalPos="29.05" duration="62.10" routeLength="76.20" timeLoss="6.16" maxSpeed="1.36" waitingTime="0.00"/>
    </personinfo>
    <personinfo id="pf_2.4" depart="144.00" type="ped" speedFactor="0.89" duration="49.10" waitingTime="21.70" timeLoss="24.35" traveltime="49.10">
        <walk depart="144.00" departPos="15.09" arrival="193.10" arrivalPos="3.44" duration="49.10" routeLength="30.72" timeLoss="24.35" maxSpeed="1.24" waitingTime="21.70"/>
    </personinfo>
    <tripinfo id="C2_1.0" depart="40.30" departLane="440471861#0_2" departPos="5.10" departPosLat="0.00" departSpeed="38.00" departDelay="0.00" arrival="200.40" arrivalLane="-145894807#0_1" arrivalPos="260.95" arrivalPosLat="-0.00" arrivalSpeed="11.37" duration="160.10" routeLength="1082.07" waitingTime="70.90" waitingCount="2" stopTime="0.00" timeLoss="97.75" rerouteNo="1" devices="tripinfo_C2_1.0 routing_C2_1.0" vType="car" speedFactor="1.37" vaporized=""/>
    <personinfo id="pf_2.5" depart="180.00" type="ped" speedFactor="1.07" duration="22.80" waitingTime="0.00" timeLoss="2.18" traveltime="22.80">
        <walk depart="180.00" departPos="15.09" arrival="202.80" arrivalPos="3.44" duration="22.80" routeLength="30.72" timeLoss="2.18" maxSpeed="1.49" waitingTime="0.00"/>
    </personinfo>
    <tripinfo id="C1_1.0" depart="35.30" departLane="440471861#0_1" departPos="5.10" departPosLat="0.00" departSpeed="26.89" departDelay="0.00" arrival="214.20" arrivalLane="-793339796#2_2" arrivalPos="82.50" arrivalPosLat="0.00" arrivalSpeed="26.81" duration="178.90" routeLength="1653.99" waitingTime="73.20" waitingCount="2" stopTime="0.00" timeLoss="116.24" rerouteNo="1" devices="tripinfo_C1_1.0 routing_C1_1.0" vType="car" speedFactor="0.97" vaporized=""/>
    <tripinfo id="C1_1.2" depart="82.10" departLane="440471861#0_1" departPos="5.10" departPosLat="0.00" departSpeed="28.72" departDelay="0.00" arrival="217.20" arrivalLane="-793339796#2_2" arrivalPos="82.50" arrivalPosLat="0.00" arrivalSpeed="28.60" duration="135.10" routeLength="1653.99" waitingTime="22.80" waitingCount="1" stopTime="0.00" timeLoss="76.40" rerouteNo="1" devices="tripinfo_C1_1.2 routing_C1_1.2" vType="car" speedFactor="1.03" vaporized=""/>
    <personinfo id="pf_4.3" depart="108.00" type="ped" speedFactor="1.04" duration="114.10" waitingTime="0.00" timeLoss="11.67" traveltime="114.10">
        <walk depart="108.00" departPos="25.00" arrival="163.50" arrivalPos="29.11" duration="55.50" routeLength="72.15" timeLoss="5.69" maxSpeed="1.45" waitingTime="0.00"/>
        <walk depart="163.50" departPos="29.11" arrival="222.10" arrivalPos="29.05" duration="58.60" routeLength="76.20" timeLoss="5.99" maxSpeed="1.45" waitingTime="0.00"/>
    </personinfo>
    <tripinfo id="C1_1.1" depart="63.70" departLane="440471861#0_1" departPos="5.10" departPosLat="0.00" departSpeed="26.59" departDelay="0.00" arrival="223.30" arrivalLane="-793339796#2_2" arrivalPos="82.50" arrivalPosLat="0.00" arrivalSpeed="16.50" duration="159.60" routeLength="1653.99" waitingTime="40.70" waitingCount="2" stopTime="0.00" timeLoss="96.20" rerouteNo="1" devices="tripinfo_C1_1.1 routing_C1_1.1" vType="car" speedFactor="0.96" vaporized=""/>
    <tripinfo id="B1_1.0" depart="75.60" departLane="-361257727#0_1" departPos="2.30" departPosLat="0.00" departSpeed="8.63" departDelay="0.00" arrival="224.60" arrivalLane="-793339796#2_2" arrivalPos="82.50" arrivalPosLat="0.00" arrivalSpeed="24.58" duration="149.00" routeLength="1918.24" waitingTime="3.70" waitingCount="1" stopTime="0.00" timeLoss="18.70" rerouteNo="1" devices="tripinfo_B1_1.0 routing_B1_1.0" vType="motorcycle" speedFactor="1.04" vaporized=""/>
    <tripinfo id="D3_1.0" depart="15.30" departLane="140483224#1_1" departPos="12.10" departPosLat="0.00" departSpeed="27.78" departDelay="0.00" arrival="225.20" arrivalLane="-440471861#0_2" arrivalPos="31.52" arrivalPosLat="0.00" arrivalSpeed="21.35" duration="209.90" routeLength="1060.97" waitingTime="137.50" waitingCount="1" stopTime="0.00" timeLoss="170.15" rerouteNo="1" devices="tripinfo_D3_1.0 routing_D3_1.0" vType="bus" speedFactor="1.00" vaporized=""/>
    <tripinfo id="A2_1.2" depart="125.80" departLane="-793339796#2_1" departPos="5.10" departPosLat="0.00" departSpeed="26.16" departDelay="0.00" arrival="247.30" arrivalLane="-440471861#0_1" arrivalPos="31.52" arrivalPosLat="0.00" arrivalSpeed="30.39" duration="121.50" routeLength="1081.27" waitingTime="45.80" waitingCount="2" stopTime="0.00" timeLoss="86.00" rerouteNo="1" devices="tripinfo_A2_1.2 routing_A2_1.2" vType="car" speedFactor="1.10" vaporized=""/>
    <tripinfo id="D2_1.0" depart="93.70" departLane="140483224#1_1" departPos="8.10" departPosLat="0.00" departSpeed="27.37" departDelay="0.00" arrival="252.20" arrivalLane="-145894807#0_1" arrivalPos="260.95" arrivalPosLat="0.00" arrivalSpeed="8.32" duration="158.50" routeLength="1089.76" waitingTime="51.10" waitingCount="2" stopTime="0.00" timeLoss="73.22" rerouteNo="1" devices="tripinfo_D2_1.0 routing_D2_1.0" vType="jeep" speedFactor="1.00" vaporized=""/>
    <tripinfo id="D2_1.1" depart="134.80" departLane="140483224#1_1" departPos="8.10" departPosLat="0.00" departSpeed="27.78" departDelay="0.00" arrival="256.10" arrivalLane="-145894807#0_1" arrivalPos="260.95" arrivalPosLat="0.00" arrivalSpeed="8.32" duration="121.30" routeLength="1089.76" waitingTime="21.30" waitingCount="1" stopTime="0.00" timeLoss="36.04" rerouteNo="1" devices="tripinfo_D2_1.1 routing_D2_1.1" vType="jeep" speedFactor="1.00" vaporized=""/>
    <tripinfo id="D1_1.1" depart="74.50" departLane="140483224#1_1" departPos="2.30" departPosLat="0.00" departSpeed="31.28" departDelay="0.00" arrival="263.50" arrivalLane="-793339796#2_2" arrivalPos="82.50" arrivalPosLat="0.00" arrivalSpeed="26.02" duration="189.00" routeLength="1651.18" waitingTime="113.40" waitingCount="3" stopTime="0.00" timeLoss="134.16" rerouteNo="1" devices="tripinfo_D1_1.1 routing_D1_1.1" vType="motorcycle" speedFactor="1.13" vaporized=""/>
    <personinfo id="pf_4.4" depart="144.00" type="ped" speedFactor="0.98" duration="120.70" waitingTime="0.00" timeLoss="11.87" traveltime="120.70">
        <walk depart="144.00" departPos="25.00" arrival="202.60" arrivalPos="29.11" duration="58.60" routeLength="72.15" timeLoss="5.67" maxSpeed="1.36" waitingTime="0.00"/>
        <walk depart="202.60" departPos="29.11" arrival="264.70" arrivalPos="29.05" duration="62.10" routeLength="76.20" timeLoss="6.20" maxSpeed="1.36" waitingTime="0.00"/>
    </personinfo>
    <tripinfo id="A2_1.3" depart="129.90" departLane="-793339796#2_1" departPos="8.10" departPosLat="0.00" departSpeed="19.63" departDelay="0.00" arrival="265.30" arrivalLane="-440471861#0_1" arrivalPos="31.52" arrivalPosLat="-0.00" arrivalSpeed="21.08" duration="135.40" routeLength="1078.27" waitingTime="35.10" waitingCount="1" stopTime="0.00" timeLoss="96.59" rerouteNo="1" devices="tripinfo_A2_1.3 routing_A2_1.3" vType="jeep" speedFactor="1.00" vaporized=""/>
    <tripinfo id="A3_1.0" depart="127.10" departLane="-793339796#2_2" departPos="2.30" departPosLat="0.00" departSpeed="29.09" departDelay="0.00" arrival="267.70" arrivalLane="-140483224#1_2" arrivalPos="64.04" arrivalPosLat="0.00" arrivalSpeed="28.93" duration="140.60" routeLength="1083.74" waitingTime="91.30" waitingCount="2" stopTime="0.00" timeLoss="101.92" rerouteNo="1" devices="tripinfo_A3_1.0 routing_A3_1.0" vType="motorcycle" speedFactor="1.05" vaporized=""/>
    <tripinfo id="A1_1.0" depart="157.90" departLane="-793339796#2_1" departPos="5.10" departPosLat="0.00" departSpeed="26.16" departDelay="0.00" arrival="267.90" arrivalLane="-145894807#0_1" arrivalPos="260.95" arrivalPosLat="0.00" arrivalSpeed="8.17" duration="110.00" routeLength="1056.72" waitingTime="5.30" waitingCount="1" stopTime="0.00" timeLoss="20.03" rerouteNo="1" devices="tripinfo_A1_1.0 routing_A1_1.0" vType="car" speedFactor="1.00" vaporized=""/>
    <tripinfo id="D2_1.2" depart="185.20" departLane="140483224#1_1" departPos="7.20" departPosLat="0.00" departSpeed="26.14" departDelay="0.00" arrival="277.40" arrivalLane="-145894807#0_1" arrivalPos="260.95" arrivalPosLat="0.00" arrivalSpeed="7.81" duration="92.20" routeLength="1090.66" waitingTime="0.00" waitingCount="0" stopTime="0.00" timeLoss="1.55" rerouteNo="1" devices="tripinfo_D2_1.2 routing_D2_1.2" vType="truck" speedFactor="0.94" vaporized=""/>
    <tripinfo id="A3_1.1" depart="193.40" departLane="-793339796#2_2" departPos="8.10" departPosLat="0.00" departSpeed="24.11" departDelay="0.00" arrival="280.40" arrivalLane="-140483224#1_2" arrivalPos="64.04" arrivalPosLat="0.00" arrivalSpeed="27.72" duration="87.00" routeLength="1077.94" waitingTime="6.50" waitingCount="1" stopTime="0.00" timeLoss="46.63" rerouteNo="1" devices="tripinfo_A3_1.1 routing_A3_1.1" vType="jeep" speedFactor="1.00" vaporized=""/>
    <tripinfo id="A3_1.2" depart="214.90" departLane="-793339796#2_2" departPos="8.10" departPosLat="0.00" departSpeed="23.40" departDelay="0.30" arrival="282.40" arrivalLane="-140483224#1_2" arrivalPos="64.04" arrivalPosLat="0.00" arrivalSpeed="27.72" duration="67.50" routeLength="1077.94" waitingTime="0.00" waitingCount="0" stopTime="0.00" timeLoss="27.10" rerouteNo="1" devices="tripinfo_A3_1.2 routing_A3_1.2" vType="jeep" speedFactor="1.00" vaporized=""/>
    <tripinfo id="D1_1.3" depart="117.10" departLane="140483224#1_1" departPos="5.10" departPosLat="0.00" departSpeed="27.95" departDelay="0.00" arrival="289.60" arrivalLane="-793339796#2_2" arrivalPos="82.50" arrivalPosLat="0.00" arrivalSpeed="27.85" duration="172.50" routeLength="1648.38" waitingTime="52.70" waitingCount="5" stopTime="0.00" timeLoss="111.12" rerouteNo="1" devices="tripinfo_D1_1.3 routing_D1_1.3" vType="car" speedFactor="1.01" vaporized=""/>
    <personinfo id="pf_1.0" depart="0.00" type="ped" speedFactor="1.06" duration="295.30" waitingTime="59.80" timeLoss="83.60" traveltime="295.30">
        <walk depart="0.00" departPos="25.00" arrival="295.30" arrivalPos="3.44" duration="295.30" routeLength="311.67" timeLoss="83.60" maxSpeed="1.47" waitingTime="59.80"/>
    </personinfo>
    <personinfo id="pf_2.7" depart="252.00" type="ped" speedFactor="1.03" duration="43.70" waitingTime="19.90" timeLoss="22.32" traveltime="43.70">
        <walk depart="252.00" departPos="15.09" arrival="295.70" arrivalPos="3.44" duration="43.70" routeLength="30.72" timeLoss="22.32" maxSpeed="1.44" waitingTime="19.90"/>
    </personinfo>
    <personinfo id="pf_2.6" depart="216.00" type="ped" speedFactor="1.01" duration="79.90" waitingTime="55.70" timeLoss="58.09" traveltime="79.90">
        <walk depart="216.00" departPos="15.09" arrival="295.90" arrivalPos="3.44" duration="79.90" routeLength="30.72" timeLoss="58.09" maxSpeed="1.41" waitingTime="55.70"/>
    </personinfo>
    <tripinfo id="D1_1.2" depart="92.30" departLane="140483224#1_1" departPos="7.20" departPosLat="0.00" departSpeed="27.33" departDelay="0.00" arrival="297.80" arrivalLane="-793339796#2_2" arrivalPos="82.50" arrivalPosLat="0.00" arrivalSpeed="25.40" duration="205.50" routeLength="1646.28" waitingTime="78.00" waitingCount="3" stopTime="0.00" timeLoss="142.82" rerouteNo="1" devices="tripinfo_D1_1.2 routing_D1_1.2" vType="truck" speedFactor="0.98" vaporized=""/>
    <personinfo id="pf_4.5" depart="180.00" type="ped" speedFactor="0.96" duration="123.70" waitingTime="0.00" timeLoss="12.02" traveltime="123.70">
        <walk depart="180.00" departPos="25.00" arrival="240.00" arrivalPos="29.11" duration="60.00" routeLength="72.15" timeLoss="5.69" maxSpeed="1.33" waitingTime="0.00"/>
        <walk depart="240.00" departPos="29.11" arrival="303.70" arrivalPos="29.05" duration="63.70" routeLength="76.20" timeLoss="6.34" maxSpeed="1.33" waitingTime="0.00"/>
    </personinfo>
    <personinfo id="pf_2.8" depart="288.00" type="ped" speedFactor="1.06" duration="23.00" waitingTime="0.00" timeLoss="2.23" traveltime="23.00">
        <walk depart="288.00" departPos="15.09" arrival="311.00" arrivalPos="3.44" duration="23.00" routeLength="30.72" timeLoss="2.23" maxSpeed="1.48" waitingTime="0.00"/>
    </personinfo>
    <tripinfo id="B2_1.2" depart="150.30" departLane="-361257727#0_1" departPos="5.10" departPosLat="0.00" departSpeed="8.28" departDelay="0.00" arrival="324.20" arrivalLane="-440471861#0_2" arrivalPos="31.52" arrivalPosLat="0.00" arrivalSpeed="27.53" duration="173.90" routeLength="1397.68" waitingTime="28.40" waitingCount="1" stopTime="0.00" timeLoss="56.11" rerouteNo="1" devices="tripinfo_B2_1.2 routing_B2_1.2" vType="car" speedFactor="0.99" vaporized=""/>
    <tripinfo id="B2_1.0" depart="62.00" departLane="-361257727#0_1" departPos="7.20" departPosLat="0.00" departSpeed="8.62" departDelay="0.00" arrival="328.20" arrivalLane="-440471861#0_1" arrivalPos="31.52" arrivalPosLat="-0.00" arrivalSpeed="22.04" duration="266.20" routeLength="1395.58" waitingTime="119.60" waitingCount="1" stopTime="0.00" timeLoss="153.37" rerouteNo="1" devices="tripinfo_B2_1.0 routing_B2_1.0" vType="truck" speedFactor="1.04" vaporized=""/>
    <personinfo id="pf_4.6" depart="216.00" type="ped" speedFactor="1.06" duration="112.40" waitingTime="0.00" timeLoss="11.36" traveltime="112.40">
        <walk depart="216.00" departPos="25.00" arrival="270.80" arrivalPos="29.11" duration="54.80" routeLength="72.15" timeLoss="5.66" maxSpeed="1.47" waitingTime="0.00"/>
        <walk depart="270.80" departPos="29.11" arrival="328.40" arrivalPos="29.05" duration="57.60" routeLength="76.20" timeLoss="5.70" maxSpeed="1.47" waitingTime="0.00"/>
    </personinfo>
    <tripinfo id="B2_1.1" depart="129.20" departLane="-361257727#0_1" departPos="5.10" departPosLat="0.00" departSpeed="7.20" departDelay="0.00" arrival="329.40" arrivalLane="-440471861#0_1" arrivalPos="31.52" arrivalPosLat="0.00" arrivalSpeed="23.58" duration="200.20" routeLength="1397.68" waitingTime="34.10" waitingCount="1" stopTime="0.00" timeLoss="64.80" rerouteNo="1" devices="tripinfo_B2_1.1 routing_B2_1.1" vType="car" speedFactor="0.86" vaporized=""/>
    <tripinfo id="A3_1.3" depart="222.10" departLane="-793339796#2_2" departPos="5.10" departPosLat="0.00" departSpeed="15.17" departDelay="0.00" arrival="339.40" arrivalLane="-140483224#1_2" arrivalPos="64.04" arrivalPosLat="0.00" arrivalSpeed="28.56" duration="117.30" routeLength="1080.94" waitingTime="50.20" waitingCount="2" stopTime="0.00" timeLoss="78.17" rerouteNo="1" devices="tripinfo_A3_1.3 routing_A3_1.3" vType="car" speedFactor="1.03" vaporized=""/>
    <tripinfo id="C3_1.2" depart="156.50" departLane="440471861#0_1" departPos="5.10" departPosLat="0.00" departSpeed="29.12" departDelay="0.00" arrival="340.80" arrivalLane="-140483224#1_2" arrivalPos="64.04" arrivalPosLat="0.00" arrivalSpeed="29.04" duration="184.30" routeLength="1052.78" waitingTime="119.00" waitingCount="1" stopTime="0.00" timeLoss="146.91" rerouteNo="1" devices="tripinfo_C3_1.2 routing_C3_1.2" vType="car" speedFactor="1.05" vaporized=""/>
    <tripinfo id="A3_1.4" depart="227.60" departLane="-793339796#2_2" departPos="5.10" departPosLat="0.00" departSpeed="21.07" departDelay="0.00" arrival="341.60" arrivalLane="-140483224#1_1" arrivalPos="64.04" arrivalPosLat="-0.00" arrivalSpeed="24.29" duration="114.00" routeLength="1080.94" waitingTime="34.80" waitingCount="3" stopTime="0.00" timeLoss="67.86" rerouteNo="1" devices="tripinfo_A3_1.4 routing_A3_1.4" vType="car" speedFactor="0.88" vaporized=""/>
    <tripinfo id="C3_1.3" depart="208.00" departLane="440471861#0_1" departPos="7.20" departPosLat="0.00" departSpeed="26.77" departDelay="0.00" arrival="349.40" arrivalLane="-140483224#1_2" arrivalPos="64.04" arrivalPosLat="0.00" arrivalSpeed="26.72" duration="141.40" routeLength="1050.68" waitingTime="65.60" waitingCount="1" stopTime="0.00" timeLoss="100.69" rerouteNo="1" devices="tripinfo_C3_1.3 routing_C3_1.3" vType="truck" speedFactor="0.96" vaporized=""/>
    <personinfo id="pf_2.9" depart="324.00" type="ped" speedFactor="0.96" duration="42.80" waitingTime="17.30" timeLoss="19.75" traveltime="42.80">
        <walk depart="324.00" departPos="15.09" arrival="366.80" arrivalPos="3.44" duration="42.80" routeLength="30.72" timeLoss="19.75" maxSpeed="1.33" waitingTime="17.30"/>
    </personinfo>
    <tripinfo id="C3_1.4" depart="303.70" departLane="440471861#0_1" departPos="7.20" departPosLat="0.00" departSpeed="25.92" departDelay="0.00" arrival="369.30" arrivalLane="-140483224#1_2" arrivalPos="64.04" arrivalPosLat="0.00" arrivalSpeed="25.89" duration="65.60" routeLength="1050.68" waitingTime="0.00" waitingCount="0" stopTime="0.00" timeLoss="23.65" rerouteNo="1" devices="tripinfo_C3_1.4 routing_C3_1.4" vType="truck" speedFactor="0.93" vaporized=""/>
    <personinfo id="pf_4.7" depart="252.00" type="ped" speedFactor="0.99" duration="120.40" waitingTime="0.00" timeLoss="12.19" traveltime="120.40">
        <walk depart="252.00" departPos="25.00" arrival="310.50" arrivalPos="29.11" duration="58.50" routeLength="72.15" timeLoss="5.87" maxSpeed="1.37" waitingTime="0.00"/>
        <walk depart="310.50" departPos="29.11" arrival="372.40" arrivalPos="29.05" duration="61.90" routeLength="76.20" timeLoss="6.32" maxSpeed="1.37" waitingTime="0.00"/>
    </personinfo>
    <personinfo id="pf_2.10" depart="360.00" type="ped" speedFactor="0.93" duration="26.60" waitingTime="0.00" timeLoss="2.76" traveltime="26.60">
        <walk depart="360.00" departPos="15.09" arrival="386.60" arrivalPos="3.44" duration="26.60" routeLength="30.72" timeLoss="2.76" maxSpeed="1.29" waitingTime="0.00"/>
    </personinfo>
    <tripinfo id="D3_1.1" depart="201.70" departLane="140483224#1_2" departPos="5.10" departPosLat="0.00" departSpeed="32.43" departDelay="0.00" arrival="387.40" arrivalLane="-440471861#0_2" arrivalPos="31.52" arrivalPosLat="0.00" arrivalSpeed="31.01" duration="185.70" routeLength="1067.97" waitingTime="122.70" waitingCount="2" stopTime="0.00" timeLoss="151.49" rerouteNo="1" devices="tripinfo_D3_1.1 routing_D3_1.1" vType="car" speedFactor="1.17" vaporized=""/>
    <tripinfo id="D3_1.2" depart="206.80" departLane="140483224#1_2" departPos="5.10" departPosLat="0.00" departSpeed="24.00" departDelay="0.00" arrival="391.10" arrivalLane="-440471861#0_2" arrivalPos="31.52" arrivalPosLat="0.00" arrivalSpeed="23.87" duration="184.30" routeLength="1067.97" waitingTime="106.00" waitingCount="2" stopTime="0.00" timeLoss="138.03" rerouteNo="1" devices="tripinfo_D3_1.2 routing_D3_1.2" vType="car" speedFactor="0.86" vaporized=""/>
    <tripinfo id="C1_1.5" depart="294.40" departLane="440471861#0_1" departPos="5.10" departPosLat="0.00" departSpeed="28.13" departDelay="0.00" arrival="391.70" arrivalLane="-793339796#2_2" arrivalPos="82.50" arrivalPosLat="0.00" arrivalSpeed="28.05" duration="97.30" routeLength="1653.99" waitingTime="0.50" waitingCount="1" stopTime="0.00" timeLoss="37.38" rerouteNo="1" devices="tripinfo_C1_1.5 routing_C1_1.5" vType="car" speedFactor="1.01" vaporized=""/>
    <tripinfo id="D3_1.3" depart="212.70" departLane="140483224#1_1" departPos="2.30" departPosLat="0.00" departSpeed="21.47" departDelay="0.00" arrival="392.80" arrivalLane="-440471861#0_2" arrivalPos="31.52" arrivalPosLat="0.00" arrivalSpeed="21.42" duration="180.10" routeLength="1070.77" waitingTime="102.60" waitingCount="2" stopTime="0.00" timeLoss="128.26" rerouteNo="1" devices="tripinfo_D3_1.3 routing_D3_1.3" vType="motorcycle" speedFactor="0.77" vaporized=""/>
    <tripinfo id="C1_1.3" depart="142.00" departLane="440471861#0_1" departPos="8.10" departPosLat="0.00" departSpeed="27.78" departDelay="0.00" arrival="405.90" arrivalLane="-793339796#2_2" arrivalPos="82.50" arrivalPosLat="0.00" arrivalSpeed="24.63" duration="263.90" routeLength="1650.99" waitingTime="134.60" waitingCount="1" stopTime="0.00" timeLoss="203.37" rerouteNo="1" devices="tripinfo_C1_1.3 routing_C1_1.3" vType="jeep" speedFactor="1.00" vaporized=""/>
    <personinfo id="pf_4.8" depart="288.00" type="ped" speedFactor="0.99" duration="119.90" waitingTime="0.00" timeLoss="12.15" traveltime="119.90">
        <walk depart="288.00" departPos="25.00" arrival="346.40" arrivalPos="29.11" duration="58.40" routeLength="72.15" timeLoss="6.00" maxSpeed="1.38" waitingTime="0.00"/>
        <walk depart="346.40" departPos="29.11" arrival="407.90" arrivalPos="29.05" duration="61.50" routeLength="76.20" timeLoss="6.16" maxSpeed="1.38" waitingTime="0.00"/>
    </personinfo>
    <tripinfo id="C1_1.4" depart="227.40" departLane="440471861#0_1" departPos="7.20" departPosLat="0.00" departSpeed="28.00" departDelay="0.00" arrival="409.40" arrivalLane="-793339796#2_2" arrivalPos="82.50" arrivalPosLat="0.00" arrivalSpeed="25.51" duration="182.00" routeLength="1651.89" waitingTime="47.60" waitingCount="1" stopTime="0.00" timeLoss="121.92" rerouteNo="1" devices="tripinfo_C1_1.4 routing_C1_1.4" vType="truck" speedFactor="1.01" vaporized=""/>
    <tripinfo id="D2_1.3" depart="223.20" departLane="140483224#1_1" departPos="2.30" departPosLat="0.00" departSpeed="28.22" departDelay="0.00" arrival="418.40" arrivalLane="-145894807#0_1" arrivalPos="260.95" arrivalPosLat="0.00" arrivalSpeed="8.35" duration="195.20" routeLength="1095.56" waitingTime="102.70" waitingCount="2" stopTime="0.00" timeLoss="111.15" rerouteNo="1" devices="tripinfo_D2_1.3 routing_D2_1.3" vType="motorcycle" speedFactor="1.02" vaporized=""/>
    <personinfo id="pf_3.2" depart="72.00" type="ped" speedFactor="1.03" duration="362.60" waitingTime="0.00" timeLoss="36.26" traveltime="362.60">
        <walk depart="72.00" departPos="25.00" arrival="174.40" arrivalPos="19.11" duration="102.40" routeLength="132.56" timeLoss="10.19" maxSpeed="1.44" waitingTime="0.00"/>
        <walk depart="174.40" departPos="19.11" arrival="434.60" arrivalPos="22.72" duration="260.20" routeLength="336.55" timeLoss="26.08" maxSpeed="1.44" waitingTime="0.00"/>
    </personinfo>
    <personinfo id="pf_3.0" depart="0.00" type="ped" speedFactor="0.95" duration="436.00" waitingTime="40.10" timeLoss="79.49" traveltime="436.00">
        <walk depart="0.00" departPos="25.00" arrival="111.50" arrivalPos="19.11" duration="111.50" routeLength="132.56" timeLoss="10.76" maxSpeed="1.32" waitingTime="0.00"/>
        <walk depart="111.50" departPos="19.11" arrival="436.00" arrivalPos="22.72" duration="324.50" routeLength="336.55" timeLoss="68.73" maxSpeed="1.32" waitingTime="40.10"/>
    </personinfo>
    <personinfo id="pf_4.9" depart="324.00" type="ped" speedFactor="1.05" duration="112.70" waitingTime="0.00" timeLoss="10.74" traveltime="112.70">
        <walk depart="324.00" departPos="25.00" arrival="378.80" arrivalPos="29.11" duration="54.80" routeLength="72.15" timeLoss="5.21" maxSpeed="1.46" waitingTime="0.00"/>
        <walk depart="378.80" departPos="29.11" arrival="436.70" arrivalPos="29.05" duration="57.90" routeLength="76.20" timeLoss="5.53" maxSpeed="1.46" waitingTime="0.00"/>
    </personinfo>
    <tripinfo id="D1_1.4" depart="236.00" departLane="140483224#1_1" departPos="2.30" departPosLat="0.00" departSpeed="28.23" departDelay="0.00" arrival="438.30" arrivalLane="-793339796#2_2" arrivalPos="82.50" arrivalPosLat="0.00" arrivalSpeed="28.06" duration="202.30" routeLength="1651.18" waitingTime="120.90" waitingCount="3" stopTime="0.00" timeLoss="141.51" rerouteNo="1" devices="tripinfo_D1_1.4 routing_D1_1.4" vType="motorcycle" speedFactor="1.02" vaporized=""/>