<?xml version="1.0" encoding="UTF-8"?>

<!-- generated on 2025-11-18 02:32:16 by Eclipse SUMO sumo Version 1.24.0
<sumoConfiguration xmlns:xsi="http://www.w3.org/2001/XMLSchema-instance" xsi:noNamespaceSchemaLocation="http://sumo.dlr.de/xsd/sumoConfiguration.xsd">

    <input>
        <net-file value="Olivarez_traci\network/map.net.xml"/>
        <route-files value="Olivarez_traci\demand/flows_traffic_jam.rou.xml"/>
        <additional-files value="Olivarez_traci\additionals/map.poly.xml,Olivarez_traci\ additionals/detectors.add.xml"/>
    </input>

    <output>
        <tripinfo-output value="Olivarez_traci\output_NoDRL\SP_NoDRL_trips.xml"/>
        <statistic-output value="Olivarez_traci\output_NoDRL\SP_NoDRL_stats.xml"/>
    </output>

    <time>
        <begin value="0"/>
        <end value="10800"/>
        <step-length value="0.1"/>
    </time>

    <processing>
        <lateral-resolution value="0.1"/>
        <collision.action value="none"/>
        <collision.check-junctions value="false"/>
        <collision.mingap-factor value="0"/>
    </processing>

    <report>
        <no-warnings value="true"/>
    </report>

    <traci_server>
        <remote-port value="54070"/>
    </traci_server>

    <gui_only>
        <delay value="0"/>
    </gui_only>

</sumoConfiguration>
-->

<tripinfos xmlns:xsi="http://www.w3.org/2001/XMLSchema-instance" xsi:noNamespaceSchemaLocation="http://sumo.dlr.de/xsd/tripinfo_file.xsd">
    <personinfo id="pf_2.1" depart="9.00" type="ped" speedFactor="1.03" duration="41.40" waitingTime="17.70" timeLoss="20.24" traveltime="41.40">
        <walk depart="9.00" departPos="15.72" arrival="50.40" arrivalPos="4.00" duration="41.40" routeLength="30.33" timeLoss="20.24" maxSpeed="1.43" waitingTime="17.70"/>
    </personinfo>
    <personinfo id="pf_2.2" depart="18.00" type="ped" speedFactor="1.02" duration="32.70" waitingTime="8.70" timeLoss="11.25" traveltime="32.70">
        <walk depart="18.00" departPos="15.72" arrival="50.70" arrivalPos="4.00" duration="32.70" routeLength="30.33" timeLoss="11.25" maxSpeed="1.41" waitingTime="8.70"/>
    </personinfo>
    <personinfo id="pf_2.3" depart="27.00" type="ped" speedFactor="1.09" duration="24.00" waitingTime="1.50" timeLoss="3.96" traveltime="24.00">
        <walk depart="27.00" departPos="15.72" arrival="51.00" arrivalPos="4.00" duration="24.00" routeLength="30.33" timeLoss="3.96" maxSpeed="1.51" waitingTime="1.50"/>
    </personinfo>
    <personinfo id="pf_2.0" depart="0.00" type="ped" speedFactor="0.98" duration="51.20" waitingTime="26.50" timeLoss="28.85" traveltime="51.20">
        <walk depart="0.00" departPos="15.72" arrival="51.20" arrivalPos="4.00" duration="51.20" routeLength="30.33" timeLoss="28.85" maxSpeed="1.36" waitingTime="26.50"/>
    </personinfo>
    <personinfo id="pf_2.4" depart="36.00" type="ped" speedFactor="1.10" duration="21.90" waitingTime="0.00" timeLoss="2.04" traveltime="21.90">
        <walk depart="36.00" departPos="15.72" arrival="57.90" arrivalPos="4.00" duration="21.90" routeLength="30.33" timeLoss="2.04" maxSpeed="1.53" waitingTime="0.00"/>
    </personinfo>
    <tripinfo id="A2_1.0" depart="3.00" departLane="-793339796#2_1" departPos="5.10" departPosLat="0.00" departSpeed="30.27" departDelay="0.00" arrival="60.60" arrivalLane="-440471861#0_1" arrivalPos="31.49" arrivalPosLat="0.00" arrivalSpeed="30.20" duration="57.60" routeLength="1081.89" waitingTime="11.00" waitingCount="1" stopTime="0.00" timeLoss="21.86" rerouteNo="1" devices="tripinfo_A2_1.0 routing_A2_1.0" vType="car" speedFactor="1.09" vaporized=""/>
    <tripinfo id="A2_1.1" depart="6.90" departLane="-793339796#2_1" departPos="8.10" departPosLat="0.00" departSpeed="27.78" departDelay="0.00" arrival="70.30" arrivalLane="-440471861#0_1" arrivalPos="31.49" arrivalPosLat="0.00" arrivalSpeed="27.75" duration="63.40" routeLength="1078.89" waitingTime="1.80" waitingCount="1" stopTime="0.00" timeLoss="24.56" rerouteNo="1" devices="tripinfo_A2_1.1 routing_A2_1.1" vType="jeep" speedFactor="1.00" vaporized=""/>
    <tripinfo id="A2_1.2" depart="8.90" departLane="-793339796#2_2" departPos="8.10" departPosLat="0.00" departSpeed="27.78" departDelay="0.00" arrival="70.50" arrivalLane="-440471861#0_2" arrivalPos="31.49" arrivalPosLat="0.00" arrivalSpeed="27.74" duration="61.60" routeLength="1078.89" waitingTime="3.50" waitingCount="1" stopTime="0.00" timeLoss="22.73" rerouteNo="1" devices="tripinfo_A2_1.2 routing_A2_1.2" vType="jeep" speedFactor="1.00" vaporized=""/>
    <personinfo id="pf_2.5" depart="45.00" type="ped" speedFactor="0.95" duration="25.70" waitingTime="0.00" timeLoss="2.78" traveltime="25.70">
        <walk depart="45.00" departPos="15.72" arrival="70.70" arrivalPos="4.00" duration="25.70" routeLength="30.33" timeLoss="2.78" maxSpeed="1.32" waitingTime="0.00"/>
    </personinfo>
    <personinfo id="pf_2.6" depart="54.00" type="ped" speedFactor="0.96" duration="25.20" waitingTime="0.00" timeLoss="2.43" traveltime="25.20">
        <walk depart="54.00" departPos="15.72" arrival="79.20" arrivalPos="4.00" duration="25.20" routeLength="30.33" timeLoss="2.43" maxSpeed="1.33" waitingTime="0.00"/>
    </personinfo>
    <tripinfo id="D1_1.0" depart="1.20" departLane="140483224#1_1" departPos="2.30" departPosLat="0.00" departSpeed="23.35" departDelay="0.00" arrival="82.10" arrivalLane="-793339796#2_2" arrivalPos="83.13" arrivalPosLat="0.00" arrivalSpeed="23.22" duration="80.90" routeLength="1651.25" waitingTime="0.00" waitingCount="0" stopTime="0.00" timeLoss="7.34" rerouteNo="1" devices="tripinfo_D1_1.0 routing_D1_1.0" vType="motorcycle" speedFactor="0.84" vaporized=""/>
    <personinfo id="pf_2.10" depart="90.00" type="ped" speedFactor="1.10" duration="29.40" waitingTime="7.30" timeLoss="9.62" traveltime="29.40">
        <walk depart="90.00" departPos="15.72" arrival="119.40" arrivalPos="4.00" duration="29.40" routeLength="30.33" timeLoss="9.62" maxSpeed="1.53" waitingTime="7.30"/>
    </personinfo>
    <personinfo id="pf_2.8" depart="72.00" type="ped" speedFactor="1.01" duration="48.70" waitingTime="24.60" timeLoss="27.17" traveltime="48.70">
        <walk depart="72.00" departPos="15.72" arrival="120.70" arrivalPos="4.00" duration="48.70" routeLength="30.33" timeLoss="27.17" maxSpeed="1.41" waitingTime="24.60"/>
    </personinfo>
    <personinfo id="pf_2.9" depart="81.00" type="ped" speedFactor="0.99" duration="40.00" waitingTime="15.50" timeLoss="18.01" traveltime="40.00">
        <walk depart="81.00" departPos="15.72" arrival="121.00" arrivalPos="4.00" duration="40.00" routeLength="30.33" timeLoss="18.01" maxSpeed="1.38" waitingTime="15.50"/>
    </personinfo>
    <personinfo id="pf_2.7" depart="63.00" type="ped" speedFactor="0.86" duration="60.60" waitingTime="32.30" timeLoss="35.21" traveltime="60.60">
        <walk depart="63.00" departPos="15.72" arrival="123.60" arrivalPos="4.00" duration="60.60" routeLength="30.33" timeLoss="35.21" maxSpeed="1.19" waitingTime="32.30"/>
    </personinfo>
    <personinfo id="pf_2.11" depart="99.00" type="ped" speedFactor="0.98" duration="24.90" waitingTime="0.00" timeLoss="2.55" traveltime="24.90">
        <walk depart="99.00" departPos="15.72" arrival="123.90" arrivalPos="4.00" duration="24.90" routeLength="30.33" timeLoss="2.55" maxSpeed="1.36" waitingTime="0.00"/>
    </personinfo>
    <personinfo id="pf_2.12" depart="108.00" type="ped" speedFactor="0.97" duration="25.10" waitingTime="0.00" timeLoss="2.54" traveltime="25.10">
        <walk depart="108.00" departPos="15.72" arrival="133.10" arrivalPos="4.00" duration="25.10" routeLength="30.33" timeLoss="2.54" maxSpeed="1.34" waitingTime="0.00"/>
    </personinfo>
    <personinfo id="pf_2.13" depart="117.00" type="ped" speedFactor="0.80" duration="30.20" waitingTime="0.00" timeLoss="3.01" traveltime="30.20">
        <walk depart="117.00" departPos="15.72" arrival="147.20" arrivalPos="4.00" duration="30.20" routeLength="30.33" timeLoss="3.01" maxSpeed="1.12" waitingTime="0.00"/>
    </personinfo>
    <personinfo id="pf_2.14" depart="126.00" type="ped" speedFactor="1.00" duration="24.10" waitingTime="0.00" timeLoss="2.28" traveltime="24.10">
        <walk depart="126.00" departPos="15.72" arrival="150.10" arrivalPos="4.00" duration="24.10" routeLength="30.33" timeLoss="2.28" maxSpeed="1.39" waitingTime="0.00"/>
    </personinfo>
    <tripinfo id="C3_1.2" depart="22.80" departLane="440471861#0_1" departPos="2.30" departPosLat="0.00" departSpeed="29.85" departDelay="0.00" arrival="163.40" arrivalLane="-140483224#1_1" arrivalPos="64.17" arrivalPosLat="-0.00" arrivalSpeed="29.67" duration="140.60" routeLength="1056.73" waitingTime="84.20" waitingCount="3" stopTime="0.00" timeLoss="104.08" rerouteNo="1" devices="tripinfo_C3_1.2 routing_C3_1.2" vType="motorcycle" speedFactor="1.07" vaporized=""/>
    <tripinfo id="C3_1.0" depart="6.90" departLane="440471861#0_1" departPos="2.30" departPosLat="0.00" departSpeed="21.48" departDelay="0.00" arrival="167.50" arrivalLane="-140483224#1_1" arrivalPos="64.17" arrivalPosLat="0.00" arrivalSpeed="24.54" duration="160.60" routeLength="1056.73" waitingTime="108.10" waitingCount="2" stopTime="0.00" timeLoss="116.39" rerouteNo="1" devices="tripinfo_C3_1.0 routing_C3_1.0" vType="motorcycle" speedFactor="0.89" vaporized=""/>
    <tripinfo id="C3_1.1" depart="8.60" departLane="440471861#0_1" departPos="2.30" departPosLat="0.00" departSpeed="23.68" departDelay="0.00" arrival="170.90" arrivalLane="-140483224#1_2" arrivalPos="64.17" arrivalPosLat="0.00" arrivalSpeed="23.65" duration="162.30" routeLength="1056.73" waitingTime="97.90" waitingCount="2" stopTime="0.00" timeLoss="116.35" rerouteNo="1" devices="tripinfo_C3_1.1 routing_C3_1.1" vType="tricycle" speedFactor="0.85" vaporized=""/>
    <tripinfo id="C2_1.0" depart="40.30" departLane="440471861#0_2" departPos="5.10" departPosLat="0.00" departSpeed="31.32" departDelay="0.00" arrival="171.80" arrivalLane="-145894807#0_1" arrivalPos="260.97" arrivalPosLat="0.00" arrivalSpeed="9.34" duration="131.50" routeLength="1099.91" waitingTime="40.70" waitingCount="1" stopTime="0.00" timeLoss="53.95" rerouteNo="1" devices="tripinfo_C2_1.0 routing_C2_1.0" vType="car" speedFactor="1.13" vaporized=""/>
    <tripinfo id="D3_1.0" depart="15.30" departLane="140483224#1_2" departPos="8.10" departPosLat="0.00" departSpeed="27.78" departDelay="0.00" arrival="175.00" arrivalLane="-440471861#0_2" arrivalPos="31.49" arrivalPosLat="0.00" arrivalSpeed="27.74" duration="159.70" routeLength="1066.09" waitingTime="102.40" waitingCount="1" stopTime="0.00" timeLoss="119.89" rerouteNo="1" devices="tripinfo_D3_1.0 routing_D3_1.0" vType="jeep" speedFactor="1.00" vaporized=""/>
    <tripinfo id="D3_1.1" depart="94.70" departLane="140483224#1_2" departPos="8.10" departPosLat="0.00" departSpeed="27.78" departDelay="0.00" arrival="176.40" arrivalLane="-440471861#0_2" arrivalPos="31.49" arrivalPosLat="0.00" arrivalSpeed="27.76" duration="81.70" routeLength="1066.09" waitingTime="24.30" waitingCount="1" stopTime="0.00" timeLoss="41.82" rerouteNo="1" devices="tripinfo_D3_1.1 routing_D3_1.1" vType="jeep" speedFactor="1.00" vaporized=""/>
    <tripinfo id="D3_1.2" depart="121.80" departLane="140483224#1_1" departPos="2.30" departPosLat="0.00" departSpeed="29.77" departDelay="0.00" arrival="177.70" arrivalLane="-440471861#0_2" arrivalPos="31.49" arrivalPosLat="0.00" arrivalSpeed="29.59" duration="55.90" routeLength="1071.89" waitingTime="0.00" waitingCount="0" stopTime="0.00" timeLoss="18.45" rerouteNo="1" devices="tripinfo_D3_1.2 routing_D3_1.2" vType="motorcycle" speedFactor="1.07" vaporized=""/>
    <tripinfo id="D3_1.3" depart="128.50" departLane="140483224#1_2" departPos="5.10" departPosLat="0.00" departSpeed="26.95" departDelay="0.00" arrival="179.20" arrivalLane="-440471861#0_2" arrivalPos="31.49" arrivalPosLat="-1.35" arrivalSpeed="26.82" duration="50.70" routeLength="1069.09" waitingTime="0.00" waitingCount="0" stopTime="0.00" timeLoss="9.57" rerouteNo="1" devices="tripinfo_D3_1.3 routing_D3_1.3" vType="car" speedFactor="0.97" vaporized=""/>
    <tripinfo id="C2_1.1" depart="54.60" departLane="440471861#0_2" departPos="2.30" departPosLat="0.00" departSpeed="27.20" departDelay="0.00" arrival="182.80" arrivalLane="-145894807#0_1" arrivalPos="260.97" arrivalPosLat="0.00" arrivalSpeed="8.15" duration="128.20" routeLength="1102.71" waitingTime="26.60" waitingCount="1" stopTime="0.00" timeLoss="38.82" rerouteNo="1" devices="tripinfo_C2_1.1 routing_C2_1.1" vType="motorcycle" speedFactor="0.98" vaporized=""/>
    <personinfo id="pf_2.16" depart="144.00" type="ped" speedFactor="1.13" duration="45.20" waitingTime="23.30" timeLoss="25.81" traveltime="45.20">
        <walk depart="144.00" departPos="15.72" arrival="189.20" arrivalPos="4.00" duration="45.20" routeLength="30.33" timeLoss="25.81" maxSpeed="1.56" waitingTime="23.30"/>
    </personinfo>
    <personinfo id="pf_2.17" depart="153.00" type="ped" speedFactor="1.11" duration="36.30" waitingTime="14.10" timeLoss="16.60" traveltime="36.30">
        <walk depart="153.00" departPos="15.72" arrival="189.30" arrivalPos="4.00" duration="36.30" routeLength="30.33" timeLoss="16.60" maxSpeed="1.54" waitingTime="14.10"/>
    </personinfo>
    <personinfo id="pf_2.15" depart="135.00" type="ped" speedFactor="1.07" duration="55.00" waitingTime="32.20" timeLoss="34.59" traveltime="55.00">
        <walk depart="135.00" departPos="15.72" arrival="190.00" arrivalPos="4.00" duration="55.00" routeLength="30.33" timeLoss="34.59" maxSpeed="1.49" waitingTime="32.20"/>
    </personinfo>
    <personinfo id="pf_2.18" depart="162.00" type="ped" speedFactor="0.92" duration="30.10" waitingTime="4.00" timeLoss="6.47" traveltime="30.10">
        <walk depart="162.00" departPos="15.72" arrival="192.10" arrivalPos="4.00" duration="30.10" routeLength="30.33" timeLoss="6.47" maxSpeed="1.28" waitingTime="4.00"/>
    </personinfo>
    <personinfo id="pf_2.19" depart="171.00" type="ped" speedFactor="1.03" duration="23.50" waitingTime="0.00" timeLoss="2.38" traveltime="23.50">
        <walk depart="171.00" departPos="15.72" arrival="194.50" arrivalPos="4.00" duration="23.50" routeLength="30.33" timeLoss="2.38" maxSpeed="1.44" waitingTime="0.00"/>
    </personinfo>
    <tripinfo id="C1_1.1" depart="30.30" departLane="440471861#0_1" departPos="2.30" departPosLat="0.00" departSpeed="30.61" departDelay="0.00" arrival="195.00" arrivalLane="-793339796#2_2" arrivalPos="83.13" arrivalPosLat="0.00" arrivalSpeed="30.60" duration="164.70" routeLength="1656.83" waitingTime="89.90" waitingCount="3" stopTime="0.00" timeLoss="109.49" rerouteNo="1" devices="tripinfo_C1_1.1 routing_C1_1.1" vType="motorcycle" speedFactor="1.10" vaporized=""/>
    <tripinfo id="C1_1.6" depart="82.10" departLane="440471861#0_1" departPos="2.30" departPosLat="0.00" departSpeed="28.74" departDelay="0.00" arrival="195.60" arrivalLane="-793339796#2_2" arrivalPos="83.13" arrivalPosLat="-1.19" arrivalSpeed="28.57" duration="113.50" routeLength="1656.83" waitingTime="33.40" waitingCount="2" stopTime="0.00" timeLoss="54.78" rerouteNo="1" devices="tripinfo_C1_1.6 routing_C1_1.6" vType="motorcycle" speedFactor="1.03" vaporized=""/>
    <tripinfo id="A2_1.3" depart="16.40" departLane="-793339796#2_1" departPos="5.10" departPosLat="0.00" departSpeed="28.05" departDelay="0.00" arrival="201.40" arrivalLane="-440471861#0_1" arrivalPos="31.49" arrivalPosLat="0.00" arrivalSpeed="27.99" duration="185.00" routeLength="1081.89" waitingTime="130.30" waitingCount="2" stopTime="0.00" timeLoss="146.38" rerouteNo="1" devices="tripinfo_A2_1.3 routing_A2_1.3" vType="car" speedFactor="1.01" vaporized=""/>
    <tripinfo id="C1_1.0" depart="6.60" departLane="440471861#0_1" departPos="5.10" departPosLat="0.00" departSpeed="28.06" departDelay="0.00" arrival="201.90" arrivalLane="-793339796#2_2" arrivalPos="83.13" arrivalPosLat="0.00" arrivalSpeed="27.97" duration="195.30" routeLength="1654.03" waitingTime="104.90" waitingCount="2" stopTime="0.00" timeLoss="135.28" rerouteNo="1" devices="tripinfo_C1_1.0 routing_C1_1.0" vType="car" speedFactor="1.01" vaporized=""/>
    <tripinfo id="C1_1.2" depart="35.30" departLane="440471861#0_1" departPos="5.10" departPosLat="0.00" departSpeed="30.18" departDelay="0.00" arrival="204.30" arrivalLane="-793339796#2_2" arrivalPos="83.13" arrivalPosLat="0.00" arrivalSpeed="30.08" duration="169.00" routeLength="1654.03" waitingTime="67.80" waitingCount="2" stopTime="0.00" timeLoss="113.24" rerouteNo="1" devices="tripinfo_C1_1.2 routing_C1_1.2" vType="car" speedFactor="1.09" vaporized=""/>
    <tripinfo id="A2_1.5" depart="69.00" departLane="-793339796#2_1" departPos="5.10" departPosLat="0.00" departSpeed="23.13" departDelay="22.40" arrival="205.60" arrivalLane="-440471861#0_1" arrivalPos="31.49" arrivalPosLat="0.00" arrivalSpeed="23.04" duration="136.60" routeLength="1081.89" waitingTime="76.50" waitingCount="1" stopTime="0.00" timeLoss="89.79" rerouteNo="1" devices="tripinfo_A2_1.5 routing_A2_1.5" vType="car" speedFactor="0.83" vaporized=""/>
    <personinfo id="pf_2.20" depart="180.00" type="ped" speedFactor="0.94" duration="25.70" waitingTime="0.00" timeLoss="2.51" traveltime="25.70">
        <walk depart="180.00" departPos="15.72" arrival="205.70" arrivalPos="4.00" duration="25.70" routeLength="30.33" timeLoss="2.51" maxSpeed="1.31" waitingTime="0.00"/>
    </personinfo>
    <tripinfo id="D2_1.0" depart="25.10" departLane="140483224#1_1" departPos="2.30" departPosLat="0.00" departSpeed="29.87" departDelay="0.00" arrival="206.70" arrivalLane="-145894807#0_1" arrivalPos="260.97" arrivalPosLat="-0.00" arrivalSpeed="8.73" duration="181.60" routeLength="1112.65" waitingTime="92.30" waitingCount="2" stopTime="0.00" timeLoss="100.17" rerouteNo="1" devices="tripinfo_D2_1.0 routing_D2_1.0" vType="motorcycle" speedFactor="1.08" vaporized=""/>
    <tripinfo id="C1_1.4" depart="57.10" departLane="440471861#0_1" departPos="5.10" departPosLat="0.00" departSpeed="26.25" departDelay="0.00" arrival="207.10" arrivalLane="-793339796#2_2" arrivalPos="83.13" arrivalPosLat="0.00" arrivalSpeed="31.44" duration="150.00" routeLength="1654.03" waitingTime="36.10" waitingCount="2" stopTime="0.00" timeLoss="96.46" rerouteNo="1" devices="tripinfo_C1_1.4 routing_C1_1.4" vType="car" speedFactor="1.13" vaporized=""/>
    <tripinfo id="C1_1.5" depart="63.70" departLane="440471861#0_1" departPos="5.10" departPosLat="0.00" departSpeed="31.12" departDelay="0.00" arrival="210.00" arrivalLane="-793339796#2_2" arrivalPos="83.13" arrivalPosLat="0.00" arrivalSpeed="31.08" duration="146.30" routeLength="1654.03" waitingTime="32.00" waitingCount="2" stopTime="0.00" timeLoss="92.20" rerouteNo="1" devices="tripinfo_C1_1.5 routing_C1_1.5" vType="car" speedFactor="1.12" vaporized=""/>
    <tripinfo id="A2_1.6" depart="148.30" departLane="-793339796#2_1" departPos="8.10" departPosLat="0.00" departSpeed="27.78" departDelay="100.20" arrival="211.00" arrivalLane="-440471861#0_1" arrivalPos="31.49" arrivalPosLat="0.00" arrivalSpeed="27.77" duration="62.70" routeLength="1078.89" waitingTime="0.80" waitingCount="1" stopTime="0.00" timeLoss="23.86" rerouteNo="1" devices="tripinfo_A2_1.6 routing_A2_1.6" vType="jeep" speedFactor="1.00" vaporized=""/>
    <personinfo id="pf_2.21" depart="189.00" type="ped" speedFactor="1.05" duration="23.00" waitingTime="0.00" timeLoss="2.27" traveltime="23.00">
        <walk depart="189.00" departPos="15.72" arrival="212.00" arrivalPos="4.00" duration="23.00" routeLength="30.33" timeLoss="2.27" maxSpeed="1.46" waitingTime="0.00"/>
    </personinfo>
    <tripinfo id="A2_1.4" depart="68.70" departLane="-793339796#2_2" departPos="7.20" departPosLat="0.00" departSpeed="25.45" departDelay="27.30" arrival="212.00" arrivalLane="-440471861#0_2" arrivalPos="31.49" arrivalPosLat="0.00" arrivalSpeed="25.39" duration="143.30" routeLength="1079.79" waitingTime="78.10" waitingCount="1" stopTime="0.00" timeLoss="100.84" rerouteNo="1" devices="tripinfo_A2_1.4 routing_A2_1.4" vType="truck" speedFactor="0.92" vaporized=""/>
    <tripinfo id="D1_1.1" depart="47.90" departLane="140483224#1_1" departPos="5.10" departPosLat="0.00" departSpeed="26.48" departDelay="0.00" arrival="213.70" arrivalLane="-793339796#2_2" arrivalPos="83.13" arrivalPosLat="0.00" arrivalSpeed="26.45" duration="165.80" routeLength="1648.45" waitingTime="63.10" waitingCount="1" stopTime="0.00" timeLoss="101.01" rerouteNo="1" devices="tripinfo_D1_1.1 routing_D1_1.1" vType="car" speedFactor="0.95" vaporized=""/>
    <tripinfo id="D2_1.1" depart="39.10" departLane="140483224#1_1" departPos="8.10" departPosLat="0.00" departSpeed="27.78" departDelay="0.00" arrival="217.70" arrivalLane="-145894807#0_1" arrivalPos="260.97" arrivalPosLat="0.00" arrivalSpeed="8.27" duration="178.60" routeLength="1106.85" waitingTime="68.40" waitingCount="2" stopTime="0.00" timeLoss="91.38" rerouteNo="1" devices="tripinfo_D2_1.1 routing_D2_1.1" vType="jeep" speedFactor="1.00" vaporized=""/>
    <tripinfo id="C1_1.3" depart="56.20" departLane="440471861#0_1" departPos="8.10" departPosLat="0.00" departSpeed="27.78" departDelay="0.00" arrival="222.60" arrivalLane="-793339796#2_2" arrivalPos="83.13" arrivalPosLat="0.00" arrivalSpeed="24.48" duration="166.40" routeLength="1651.03" waitingTime="39.60" waitingCount="2" stopTime="0.00" timeLoss="105.81" rerouteNo="1" devices="tripinfo_C1_1.3 routing_C1_1.3" vType="jeep" speedFactor="1.00" vaporized=""/>
    <tripinfo id="D2_1.2" depart="67.30" departLane="140483224#1_1" departPos="7.20" departPosLat="0.00" departSpeed="28.39" departDelay="0.00" arrival="222.70" arrivalLane="-145894807#0_1" arrivalPos="260.97" arrivalPosLat="0.00" arrivalSpeed="8.46" duration="155.40" routeLength="1107.75" waitingTime="49.10" waitingCount="2" stopTime="0.00" timeLoss="69.93" rerouteNo="1" devices="tripinfo_D2_1.2 routing_D2_1.2" vType="truck" speedFactor="1.02" vaporized=""/>
    <tripinfo id="D1_1.2" depart="74.50" departLane="140483224#1_1" departPos="7.20" departPosLat="0.00" departSpeed="29.14" departDelay="0.00" arrival="225.00" arrivalLane="-793339796#2_2" arrivalPos="83.13" arrivalPosLat="0.00" arrivalSpeed="25.70" duration="150.50" routeLength="1646.35" waitingTime="42.10" waitingCount="1" stopTime="0.00" timeLoss="91.68" rerouteNo="1" devices="tripinfo_D1_1.2 routing_D1_1.2" vType="truck" speedFactor="1.05" vaporized=""/>
    <tripinfo id="D1_1.3" depart="92.30" departLane="140483224#1_1" departPos="5.10" departPosLat="0.00" departSpeed="27.91" departDelay="0.00" arrival="226.10" arrivalLane="-793339796#2_2" arrivalPos="83.13" arrivalPosLat="0.00" arrivalSpeed="27.21" duration="133.80" routeLength="1648.45" waitingTime="32.10" waitingCount="4" stopTime="0.00" timeLoss="72.41" rerouteNo="1" devices="tripinfo_D1_1.3 routing_D1_1.3" vType="car" speedFactor="1.00" vaporized=""/>
    <tripinfo id="D1_1.4" depart="112.20" departLane="140483224#1_1" departPos="5.10" departPosLat="0.00" departSpeed="25.94" departDelay="0.00" arrival="227.50" arrivalLane="-793339796#2_2" arrivalPos="83.13" arrivalPosLat="0.00" arrivalSpeed="25.90" duration="115.30" routeLength="1648.45" waitingTime="6.20" waitingCount="2" stopTime="0.00" timeLoss="49.22" rerouteNo="1" devices="tripinfo_D1_1.4 routing_D1_1.4" vType="car" speedFactor="0.93" vaporized=""/>
    <tripinfo id="B1_1.0" depart="75.60" departLane="-361257727#0_1" departPos="5.10" departPosLat="0.00" departSpeed="9.89" departDelay="0.00" arrival="229.10" arrivalLane="-793339796#2_1" arrivalPos="83.13" arrivalPosLat="-0.00" arrivalSpeed="30.60" duration="153.50" routeLength="1915.62" waitingTime="6.10" waitingCount="1" stopTime="0.00" timeLoss="39.95" rerouteNo="1" devices="tripinfo_B1_1.0 routing_B1_1.0" vType="car" speedFactor="1.19" vaporized=""/>
    <tripinfo id="D2_1.3" depart="93.70" departLane="140483224#1_1" departPos="8.10" departPosLat="0.00" departSpeed="26.48" departDelay="0.00" arrival="232.90" arrivalLane="-145894807#0_1" arrivalPos="260.97" arrivalPosLat="0.00" arrivalSpeed="8.31" duration="139.20" routeLength="1106.85" waitingTime="27.10" waitingCount="5" stopTime="0.00" timeLoss="51.98" rerouteNo="1" devices="tripinfo_D2_1.3 routing_D2_1.3" vType="jeep" speedFactor="1.00" vaporized=""/>
    <tripinfo id="A3_1.0" depart="15.20" departLane="-793339796#2_2" departPos="5.10" departPosLat="0.00" departSpeed="25.00" departDelay="0.00" arrival="237.60" arrivalLane="-140483224#1_2" arrivalPos="64.17" arrivalPosLat="0.00" arrivalSpeed="24.95" duration="222.40" routeLength="1081.71" waitingTime="157.50" waitingCount="3" stopTime="0.00" timeLoss="177.46" rerouteNo="1" devices="tripinfo_A3_1.0 routing_A3_1.0" vType="car" speedFactor="0.90" vaporized=""/>
    <tripinfo id="B2_1.2" depart="113.40" departLane="-361257727#0_1" departPos="5.10" departPosLat="0.00" departSpeed="8.15" departDelay="0.00" arrival="243.90" arrivalLane="-440471861#0_1" arrivalPos="31.49" arrivalPosLat="-0.00" arrivalSpeed="27.07" duration="130.50" routeLength="1414.29" waitingTime="0.00" waitingCount="0" stopTime="0.00" timeLoss="8.85" rerouteNo="1" devices="tripinfo_B2_1.2 routing_B2_1.2" vType="car" speedFactor="0.98" vaporized=""/>
    <tripinfo id="B2_1.0" depart="13.90" departLane="-361257727#0_1" departPos="8.10" departPosLat="0.00" departSpeed="8.33" departDelay="0.00" arrival="244.50" arrivalLane="-440471861#0_2" arrivalPos="31.49" arrivalPosLat="0.00" arrivalSpeed="27.73" duration="230.60" routeLength="1411.29" waitingTime="92.60" waitingCount="1" stopTime="0.00" timeLoss="111.97" rerouteNo="1" devices="tripinfo_B2_1.0 routing_B2_1.0" vType="jeep" speedFactor="1.00" vaporized=""/>
    <tripinfo id="B2_1.1" depart="62.00" departLane="-361257727#0_1" departPos="8.10" departPosLat="0.00" departSpeed="8.33" departDelay="0.00" arrival="245.90" arrivalLane="-440471861#0_2" arrivalPos="31.49" arrivalPosLat="0.00" arrivalSpeed="27.73" duration="183.90" routeLength="1411.29" waitingTime="43.00" waitingCount="1" stopTime="0.00" timeLoss="65.27" rerouteNo="1" devices="tripinfo_B2_1.1 routing_B2_1.1" vType="jeep" speedFactor="1.00" vaporized=""/>
    <tripinfo id="A3_1.1" depart="68.70" departLane="-793339796#2_1" departPos="12.10" departPosLat="0.00" departSpeed="27.78" departDelay="37.70" arrival="247.00" arrivalLane="-140483224#1_1" arrivalPos="64.17" arrivalPosLat="-0.00" arrivalSpeed="27.72" duration="178.30" routeLength="1074.71" waitingTime="101.50" waitingCount="3" stopTime="0.00" timeLoss="138.11" rerouteNo="1" devices="tripinfo_A3_1.1 routing_A3_1.1" vType="bus" speedFactor="1.00" vaporized=""/>
    <tripinfo id="B3_1.0" depart="127.70" departLane="-361257727#0_1" departPos="5.10" departPosLat="0.00" departSpeed="8.74" departDelay="0.00" arrival="248.60" arrivalLane="-140483224#1_1" arrivalPos="64.17" arrivalPosLat="0.00" arrivalSpeed="29.10" duration="120.90" routeLength="1427.09" waitingTime="0.00" waitingCount="0" stopTime="0.00" timeLoss="7.42" rerouteNo="1" devices="tripinfo_B3_1.0 routing_B3_1.0" vType="car" speedFactor="1.05" vaporized=""/>
    <tripinfo id="B2_1.3" depart="129.20" departLane="-361257727#0_1" departPos="2.30" departPosLat="0.00" departSpeed="8.23" departDelay="0.00" arrival="253.90" arrivalLane="-440471861#0_1" arrivalPos="31.49" arrivalPosLat="-0.00" arrivalSpeed="27.36" duration="124.70" routeLength="1417.09" waitingTime="0.00" waitingCount="0" stopTime="0.00" timeLoss="3.83" rerouteNo="1" devices="tripinfo_B2_1.3 routing_B2_1.3" vType="motorcycle" speedFactor="0.99" vaporized=""/>
    <tripinfo id="D1_1.6" depart="124.30" departLane="140483224#1_1" departPos="2.30" departPosLat="0.00" departSpeed="29.17" departDelay="0.00" arrival="255.60" arrivalLane="-793339796#2_2" arrivalPos="83.13" arrivalPosLat="0.00" arrivalSpeed="28.90" duration="131.30" routeLength="1651.25" waitingTime="35.30" waitingCount="1" stopTime="0.00" timeLoss="72.38" rerouteNo="1" devices="tripinfo_D1_1.6 routing_D1_1.6" vType="motorcycle" speedFactor="1.05" vaporized=""/>
    <personinfo id="pf_2.24" depart="216.00" type="ped" speedFactor="1.01" duration="44.80" waitingTime="20.40" timeLoss="23.09" traveltime="44.80">
        <walk depart="216.00" departPos="15.72" arrival="260.80" arrivalPos="4.00" duration="44.80" routeLength="30.33" timeLoss="23.09" maxSpeed="1.40" waitingTime="20.40"/>
    </personinfo>
    <personinfo id="pf_2.23" depart="207.00" type="ped" speedFactor="1.01" duration="53.90" waitingTime="29.70" timeLoss="32.24" traveltime="53.90">
        <walk depart="207.00" departPos="15.72" arrival="260.90" arrivalPos="4.00" duration="53.90" routeLength="30.33" timeLoss="32.24" maxSpeed="1.40" waitingTime="29.70"/>
    </personinfo>
    <personinfo id="pf_2.22" depart="198.00" type="ped" speedFactor="0.97" duration="63.50" waitingTime="38.40" timeLoss="40.93" traveltime="63.50">
        <walk depart="198.00" departPos="15.72" arrival="261.50" arrivalPos="4.00" duration="63.50" routeLength="30.33" timeLoss="40.93" maxSpeed="1.34" waitingTime="38.40"/>
    </personinfo>
    <personinfo id="pf_2.26" depart="234.00" type="ped" speedFactor="1.05" duration="27.50" waitingTime="4.20" timeLoss="6.76" traveltime="27.50">
        <walk depart="234.00" departPos="15.72" arrival="261.50" arrivalPos="4.00" duration="27.50" routeLength="30.33" timeLoss="6.76" maxSpeed="1.46" waitingTime="4.20"/>
    </personinfo>
    <personinfo id="pf_2.25" depart="225.00" type="ped" speedFactor="0.88" duration="38.10" waitingTime="10.40" timeLoss="13.26" traveltime="38.10">
        <walk depart="225.00" departPos="15.72" arrival="263.10" arrivalPos="4.00" duration="38.10" routeLength="30.33" timeLoss="13.26" maxSpeed="1.22" waitingTime="10.40"/>
    </personinfo>
    <personinfo id="pf_2.27" depart="243.00" type="ped" speedFactor="1.05" duration="23.20" waitingTime="0.00" timeLoss="2.34" traveltime="23.20">
        <walk depart="243.00" departPos="15.72" arrival="266.20" arrivalPos="4.00" duration="23.20" routeLength="30.33" timeLoss="2.34" maxSpeed="1.45" waitingTime="0.00"/>
    </personinfo>