<?xml version="1.0" encoding="UTF-8"?>

<!-- generated on 2025-12-03 22:10:26 by Eclipse SUMO sumo Version 1.24.0
<sumoConfiguration xmlns:xsi="http://www.w3.org/2001/XMLSchema-instance" xsi:noNamespaceSchemaLocation="http://sumo.dlr.de/xsd/sumoConfiguration.xsd">

    <input>
        <net-file value="Olivarez_traci\network/map1.net.xml"/>
        <route-files value="Olivarez_traci\demand/flows_traffic_jam.rou.xml"/>
        <additional-files value="Olivarez_traci\additionals/map.poly.xml,Olivarez_traci\ additionals/detectors.add.xml"/>
    </input>

    <output>
        <tripinfo-output value="Olivarez_traci\output_NoDRL\SP_NoDRL_trips.xml"/>
        <statistic-output value="Olivarez_traci\output_NoDRL\SP_NoDRL_stats.xml"/>
    </output>

    <time>
        <begin value="0"/>
        <end value="10800"/>
        <step-length value="0.1"/>
    </time>

    <processing>
        <lateral-resolution value="0.1"/>
        <collision.action value="none"/>
        <collision.check-junctions value="false"/>
        <collision.mingap-factor value="0"/>
    </processing>

    <report>
        <no-warnings value="true"/>
    </report>

    <traci_server>
        <remote-port value="50709"/>
    </traci_server>

    <gui_only>
        <delay value="0"/>
    </gui_only>

</sumoConfiguration>
-->

<tripinfos xmlns:xsi="http://www.w3.org/2001/XMLSchema-instance" xsi:noNamespaceSchemaLocation="http://sumo.dlr.de/xsd/tripinfo_file.xsd">
    <personinfo id="pf_2.0" depart="0.00" type="ped" speedFactor="0.83" duration="29.90" waitingTime="0.00" timeLoss="3.11" traveltime="29.90">
        <walk depart="0.00" departPos="15.09" arrival="29.90" arrivalPos="3.44" duration="29.90" routeLength="30.72" timeLoss="3.11" maxSpeed="1.15" waitingTime="0.00"/>
    </personinfo>
    <personinfo id="pf_2.1" depart="15.00" type="ped" speedFactor="0.87" duration="28.10" waitingTime="0.00" timeLoss="2.75" traveltime="28.10">
        <walk depart="15.00" departPos="15.09" arrival="43.10" arrivalPos="3.44" duration="28.10" routeLength="30.72" timeLoss="2.75" maxSpeed="1.21" waitingTime="0.00"/>
    </personinfo>
    <tripinfo id="A2_1.0" depart="3.00" departLane="-793339796#2_1" departPos="5.10" departPosLat="0.00" departSpeed="29.34" departDelay="0.00" arrival="62.30" arrivalLane="-440471861#0_1" arrivalPos="31.52" arrivalPosLat="0.00" arrivalSpeed="29.29" duration="59.30" routeLength="1081.27" waitingTime="11.90" waitingCount="1" stopTime="0.00" timeLoss="22.39" rerouteNo="1" devices="tripinfo_A2_1.0 routing_A2_1.0" vType="car" speedFactor="1.06" vaporized=""/>
    <tripinfo id="A2_1.2" depart="8.90" departLane="-793339796#2_2" departPos="5.10" departPosLat="0.00" departSpeed="27.37" departDelay="0.00" arrival="63.30" arrivalLane="-440471861#0_2" arrivalPos="31.52" arrivalPosLat="0.00" arrivalSpeed="27.34" duration="54.40" routeLength="1081.27" waitingTime="5.00" waitingCount="1" stopTime="0.00" timeLoss="14.83" rerouteNo="1" devices="tripinfo_A2_1.2 routing_A2_1.2" vType="car" speedFactor="0.99" vaporized=""/>
    <tripinfo id="A2_1.1" depart="6.90" departLane="-793339796#2_1" departPos="5.10" departPosLat="0.00" departSpeed="27.02" departDelay="0.00" arrival="64.80" arrivalLane="-440471861#0_1" arrivalPos="31.52" arrivalPosLat="-0.00" arrivalSpeed="26.97" duration="57.90" routeLength="1081.27" waitingTime="3.20" waitingCount="1" stopTime="0.00" timeLoss="17.81" rerouteNo="1" devices="tripinfo_A2_1.1 routing_A2_1.1" vType="car" speedFactor="0.97" vaporized=""/>
    <tripinfo id="A2_1.3" depart="16.40" departLane="-793339796#2_1" departPos="7.20" departPosLat="0.00" departSpeed="26.64" departDelay="0.00" arrival="82.70" arrivalLane="-440471861#0_1" arrivalPos="31.52" arrivalPosLat="-0.00" arrivalSpeed="26.58" duration="66.30" routeLength="1079.17" waitingTime="0.00" waitingCount="0" stopTime="0.00" timeLoss="25.76" rerouteNo="1" devices="tripinfo_A2_1.3 routing_A2_1.3" vType="truck" speedFactor="0.96" vaporized=""/>
    <tripinfo id="A2_1.4" depart="46.80" departLane="-793339796#2_1" departPos="5.10" departPosLat="0.00" departSpeed="28.29" departDelay="5.40" arrival="87.10" arrivalLane="-440471861#0_1" arrivalPos="31.52" arrivalPosLat="0.00" arrivalSpeed="28.23" duration="40.30" routeLength="1081.27" waitingTime="0.00" waitingCount="0" stopTime="0.00" timeLoss="2.04" rerouteNo="1" devices="tripinfo_A2_1.4 routing_A2_1.4" vType="car" speedFactor="1.02" vaporized=""/>
    <tripinfo id="A2_1.6" depart="48.10" departLane="-793339796#2_1" departPos="5.10" departPosLat="0.00" departSpeed="27.03" departDelay="0.00" arrival="90.30" arrivalLane="-440471861#0_1" arrivalPos="31.52" arrivalPosLat="0.00" arrivalSpeed="26.98" duration="42.20" routeLength="1081.27" waitingTime="0.00" waitingCount="0" stopTime="0.00" timeLoss="2.17" rerouteNo="1" devices="tripinfo_A2_1.6 routing_A2_1.6" vType="car" speedFactor="0.97" vaporized=""/>
    <tripinfo id="D1_1.0" depart="1.20" departLane="140483224#1_1" departPos="5.10" departPosLat="0.00" departSpeed="24.93" departDelay="0.00" arrival="92.80" arrivalLane="-793339796#2_2" arrivalPos="82.50" arrivalPosLat="0.00" arrivalSpeed="24.93" duration="91.60" routeLength="1648.38" waitingTime="4.90" waitingCount="1" stopTime="0.00" timeLoss="22.92" rerouteNo="1" devices="tripinfo_D1_1.0 routing_D1_1.0" vType="car" speedFactor="0.90" vaporized=""/>
    <tripinfo id="A2_1.5" depart="46.80" departLane="-793339796#2_2" departPos="5.10" departPosLat="0.00" departSpeed="24.66" departDelay="0.20" arrival="93.90" arrivalLane="-440471861#0_2" arrivalPos="31.52" arrivalPosLat="0.00" arrivalSpeed="24.65" duration="47.10" routeLength="1081.27" waitingTime="0.00" waitingCount="0" stopTime="0.00" timeLoss="3.20" rerouteNo="1" devices="tripinfo_A2_1.5 routing_A2_1.5" vType="car" speedFactor="0.89" vaporized=""/>
    <tripinfo id="A3_1.0" depart="15.20" departLane="-793339796#2_2" departPos="8.10" departPosLat="0.00" departSpeed="27.78" departDelay="0.00" arrival="97.00" arrivalLane="-140483224#1_2" arrivalPos="64.04" arrivalPosLat="0.00" arrivalSpeed="27.75" duration="81.80" routeLength="1077.94" waitingTime="15.40" waitingCount="1" stopTime="0.00" timeLoss="41.47" rerouteNo="1" devices="tripinfo_A3_1.0 routing_A3_1.0" vType="jeep" speedFactor="1.00" vaporized=""/>
    <tripinfo id="A3_1.1" depart="31.00" departLane="-793339796#2_1" departPos="12.10" departPosLat="0.00" departSpeed="27.78" departDelay="0.00" arrival="98.30" arrivalLane="-140483224#1_2" arrivalPos="64.04" arrivalPosLat="0.00" arrivalSpeed="27.75" duration="67.30" routeLength="1073.94" waitingTime="2.80" waitingCount="1" stopTime="0.00" timeLoss="27.07" rerouteNo="1" devices="tripinfo_A3_1.1 routing_A3_1.1" vType="bus" speedFactor="1.00" vaporized=""/>
    <tripinfo id="A2_1.7" depart="48.40" departLane="-793339796#2_2" departPos="5.10" departPosLat="0.00" departSpeed="21.17" departDelay="0.00" arrival="99.70" arrivalLane="-440471861#0_1" arrivalPos="31.52" arrivalPosLat="-0.00" arrivalSpeed="21.05" duration="51.30" routeLength="1081.27" waitingTime="0.00" waitingCount="0" stopTime="0.00" timeLoss="0.16" rerouteNo="1" devices="tripinfo_A2_1.7 routing_A2_1.7" vType="car" speedFactor="0.76" vaporized=""/>
    <personinfo id="pf_4.0" depart="0.00" type="ped" speedFactor="1.11" duration="107.20" waitingTime="0.00" timeLoss="11.00" traveltime="107.20">
        <walk depart="0.00" departPos="25.00" arrival="52.00" arrivalPos="29.11" duration="52.00" routeLength="72.15" timeLoss="5.21" maxSpeed="1.54" waitingTime="0.00"/>
        <walk depart="52.00" departPos="29.11" arrival="107.20" arrivalPos="29.05" duration="55.20" routeLength="76.20" timeLoss="5.79" maxSpeed="1.54" waitingTime="0.00"/>
    </personinfo>
    <tripinfo id="A2_1.8" depart="68.70" departLane="-793339796#2_1" departPos="5.10" departPosLat="0.00" departSpeed="27.81" departDelay="14.60" arrival="107.70" arrivalLane="-440471861#0_1" arrivalPos="31.52" arrivalPosLat="0.00" arrivalSpeed="27.69" duration="39.00" routeLength="1081.27" waitingTime="0.00" waitingCount="0" stopTime="0.00" timeLoss="0.09" rerouteNo="1" devices="tripinfo_A2_1.8 routing_A2_1.8" vType="car" speedFactor="1.00" vaporized=""/>
    <personinfo id="pf_2.4" depart="60.00" type="ped" speedFactor="1.13" duration="59.40" waitingTime="37.40" timeLoss="39.86" traveltime="59.40">
        <walk depart="60.00" departPos="15.09" arrival="119.40" arrivalPos="3.44" duration="59.40" routeLength="30.72" timeLoss="39.86" maxSpeed="1.57" waitingTime="37.40"/>
    </personinfo>
    <personinfo id="pf_2.6" depart="90.00" type="ped" speedFactor="1.18" duration="29.80" waitingTime="8.80" timeLoss="11.03" traveltime="29.80">
        <walk depart="90.00" departPos="15.09" arrival="119.80" arrivalPos="3.44" duration="29.80" routeLength="30.72" timeLoss="11.03" maxSpeed="1.64" waitingTime="8.80"/>
    </personinfo>
    <tripinfo id="A3_1.2" depart="68.70" departLane="-793339796#2_2" departPos="7.20" departPosLat="0.00" departSpeed="24.90" departDelay="7.70" arrival="120.20" arrivalLane="-140483224#1_2" arrivalPos="64.04" arrivalPosLat="0.00" arrivalSpeed="24.90" duration="51.50" routeLength="1078.84" waitingTime="0.00" waitingCount="0" stopTime="0.00" timeLoss="6.47" rerouteNo="1" devices="tripinfo_A3_1.2 routing_A3_1.2" vType="truck" speedFactor="0.90" vaporized=""/>
    <personinfo id="pf_2.3" depart="45.00" type="ped" speedFactor="0.95" duration="77.20" waitingTime="51.00" timeLoss="53.89" traveltime="77.20">
        <walk depart="45.00" departPos="15.09" arrival="122.20" arrivalPos="3.44" duration="77.20" routeLength="30.72" timeLoss="53.89" maxSpeed="1.32" waitingTime="51.00"/>
    </personinfo>
    <personinfo id="pf_2.5" depart="75.00" type="ped" speedFactor="0.93" duration="47.40" waitingTime="21.10" timeLoss="23.65" traveltime="47.40">
        <walk depart="75.00" departPos="15.09" arrival="122.40" arrivalPos="3.44" duration="47.40" routeLength="30.72" timeLoss="23.65" maxSpeed="1.29" waitingTime="21.10"/>
    </personinfo>
    <personinfo id="pf_2.2" depart="30.00" type="ped" speedFactor="0.92" duration="92.90" waitingTime="65.90" timeLoss="68.78" traveltime="92.90">
        <walk depart="30.00" departPos="15.09" arrival="122.90" arrivalPos="3.44" duration="92.90" routeLength="30.72" timeLoss="68.78" maxSpeed="1.27" waitingTime="65.90"/>
    </personinfo>
    <personinfo id="pf_2.7" depart="105.00" type="ped" speedFactor="1.15" duration="21.30" waitingTime="0.00" timeLoss="2.14" traveltime="21.30">
        <walk depart="105.00" departPos="15.09" arrival="126.30" arrivalPos="3.44" duration="21.30" routeLength="30.72" timeLoss="2.14" maxSpeed="1.60" waitingTime="0.00"/>
    </personinfo>
    <tripinfo id="B2_1.0" depart="13.90" departLane="-361257727#0_1" departPos="2.30" departPosLat="0.00" departSpeed="8.68" departDelay="0.00" arrival="130.50" arrivalLane="-440471861#0_1" arrivalPos="31.52" arrivalPosLat="-0.00" arrivalSpeed="28.69" duration="116.60" routeLength="1400.48" waitingTime="0.00" waitingCount="0" stopTime="0.00" timeLoss="3.83" rerouteNo="1" devices="tripinfo_B2_1.0 routing_B2_1.0" vType="motorcycle" speedFactor="1.04" vaporized=""/>
    <personinfo id="pf_4.1" depart="15.00" type="ped" speedFactor="1.02" duration="117.10" waitingTime="0.00" timeLoss="11.91" traveltime="117.10">
        <walk depart="15.00" departPos="25.00" arrival="71.70" arrivalPos="29.11" duration="56.70" routeLength="72.15" timeLoss="5.54" maxSpeed="1.41" waitingTime="0.00"/>
        <walk depart="71.70" departPos="29.11" arrival="132.10" arrivalPos="29.05" duration="60.40" routeLength="76.20" timeLoss="6.37" maxSpeed="1.41" waitingTime="0.00"/>
    </personinfo>
    <personinfo id="pf_2.8" depart="120.00" type="ped" speedFactor="1.01" duration="24.40" waitingTime="0.00" timeLoss="2.39" traveltime="24.40">
        <walk depart="120.00" departPos="15.09" arrival="144.40" arrivalPos="3.44" duration="24.40" routeLength="30.72" timeLoss="2.39" maxSpeed="1.40" waitingTime="0.00"/>
    </personinfo>
    <personinfo id="pf_4.2" depart="30.00" type="ped" speedFactor="1.01" duration="124.00" waitingTime="6.60" timeLoss="18.32" traveltime="124.00">
        <walk depart="30.00" departPos="25.00" arrival="93.70" arrivalPos="29.11" duration="63.70" routeLength="72.15" timeLoss="12.30" maxSpeed="1.40" waitingTime="6.60"/>
        <walk depart="93.70" departPos="29.11" arrival="154.00" arrivalPos="29.05" duration="60.30" routeLength="76.20" timeLoss="6.02" maxSpeed="1.40" waitingTime="0.00"/>
    </personinfo>
    <tripinfo id="C3_1.0" depart="6.90" departLane="440471861#0_1" departPos="2.30" departPosLat="0.00" departSpeed="21.33" departDelay="0.00" arrival="160.10" arrivalLane="-140483224#1_1" arrivalPos="64.04" arrivalPosLat="-0.00" arrivalSpeed="29.17" duration="153.20" routeLength="1055.58" waitingTime="104.40" waitingCount="2" stopTime="0.00" timeLoss="115.96" rerouteNo="1" devices="tripinfo_C3_1.0 routing_C3_1.0" vType="motorcycle" speedFactor="1.06" vaporized=""/>
    <tripinfo id="C3_1.3" depart="47.20" departLane="440471861#0_1" departPos="2.30" departPosLat="0.00" departSpeed="29.34" departDelay="0.00" arrival="167.00" arrivalLane="-140483224#1_1" arrivalPos="64.04" arrivalPosLat="-0.00" arrivalSpeed="29.25" duration="119.80" routeLength="1055.58" waitingTime="61.30" waitingCount="1" stopTime="0.00" timeLoss="82.57" rerouteNo="1" devices="tripinfo_C3_1.3 routing_C3_1.3" vType="motorcycle" speedFactor="1.06" vaporized=""/>
    <tripinfo id="C3_1.4" depart="51.90" departLane="440471861#0_1" departPos="5.10" departPosLat="0.00" departSpeed="29.67" departDelay="0.00" arrival="170.10" arrivalLane="-140483224#1_1" arrivalPos="64.04" arrivalPosLat="-0.00" arrivalSpeed="29.58" duration="118.20" routeLength="1052.78" waitingTime="55.70" waitingCount="1" stopTime="0.00" timeLoss="81.45" rerouteNo="1" devices="tripinfo_C3_1.4 routing_C3_1.4" vType="car" speedFactor="1.07" vaporized=""/>
    <tripinfo id="C3_1.1" depart="8.60" departLane="440471861#0_1" departPos="12.10" departPosLat="0.00" departSpeed="16.81" departDelay="0.00" arrival="172.70" arrivalLane="-140483224#1_2" arrivalPos="64.04" arrivalPosLat="0.00" arrivalSpeed="27.77" duration="164.10" routeLength="1045.78" waitingTime="92.70" waitingCount="2" stopTime="0.00" timeLoss="125.09" rerouteNo="1" devices="tripinfo_C3_1.1 routing_C3_1.1" vType="bus" speedFactor="1.00" vaporized=""/>
    <tripinfo id="C3_1.2" depart="22.80" departLane="440471861#0_1" departPos="7.20" departPosLat="0.00" departSpeed="27.71" departDelay="0.00" arrival="174.10" arrivalLane="-140483224#1_2" arrivalPos="64.04" arrivalPosLat="0.00" arrivalSpeed="27.66" duration="151.30" routeLength="1050.68" waitingTime="83.30" waitingCount="2" stopTime="0.00" timeLoss="112.04" rerouteNo="1" devices="tripinfo_C3_1.2 routing_C3_1.2" vType="truck" speedFactor="1.00" vaporized=""/>
    <personinfo id="pf_4.4" depart="60.00" type="ped" speedFactor="1.05" duration="116.10" waitingTime="2.50" timeLoss="14.03" traveltime="116.10">
        <walk depart="60.00" departPos="25.00" arrival="115.40" arrivalPos="29.11" duration="55.40" routeLength="72.15" timeLoss="5.76" maxSpeed="1.45" waitingTime="0.00"/>
        <walk depart="115.40" departPos="29.11" arrival="176.10" arrivalPos="29.05" duration="60.70" routeLength="76.20" timeLoss="8.27" maxSpeed="1.45" waitingTime="2.50"/>
    </personinfo>
    <tripinfo id="C3_1.5" depart="54.60" departLane="440471861#0_1" departPos="7.20" departPosLat="0.00" departSpeed="28.29" departDelay="0.00" arrival="177.40" arrivalLane="-140483224#1_2" arrivalPos="64.04" arrivalPosLat="0.00" arrivalSpeed="28.27" duration="122.80" routeLength="1050.68" waitingTime="52.50" waitingCount="1" stopTime="0.00" timeLoss="84.35" rerouteNo="1" devices="tripinfo_C3_1.5 routing_C3_1.5" vType="truck" speedFactor="1.02" vaporized=""/>
    <tripinfo id="C3_1.6" depart="70.30" departLane="440471861#0_1" departPos="5.10" departPosLat="0.00" departSpeed="23.65" departDelay="0.00" arrival="180.10" arrivalLane="-140483224#1_2" arrivalPos="64.04" arrivalPosLat="0.00" arrivalSpeed="23.61" duration="109.80" routeLength="1052.78" waitingTime="37.60" waitingCount="2" stopTime="0.00" timeLoss="63.76" rerouteNo="1" devices="tripinfo_C3_1.6 routing_C3_1.6" vType="car" speedFactor="0.85" vaporized=""/>
    <personinfo id="pf_4.5" depart="75.00" type="ped" speedFactor="1.12" duration="105.90" waitingTime="0.60" timeLoss="10.91" traveltime="105.90">
        <walk depart="75.00" departPos="25.00" arrival="126.80" arrivalPos="29.11" duration="51.80" routeLength="72.15" timeLoss="5.60" maxSpeed="1.56" waitingTime="0.60"/>
        <walk depart="126.80" departPos="29.11" arrival="180.90" arrivalPos="29.05" duration="54.10" routeLength="76.20" timeLoss="5.31" maxSpeed="1.56" waitingTime="0.00"/>
    </personinfo>
    <tripinfo id="C3_1.7" depart="87.10" departLane="440471861#0_1" departPos="8.10" departPosLat="0.00" departSpeed="27.78" departDelay="0.00" arrival="181.70" arrivalLane="-140483224#1_1" arrivalPos="64.04" arrivalPosLat="-0.00" arrivalSpeed="27.77" duration="94.60" routeLength="1049.78" waitingTime="22.50" waitingCount="1" stopTime="0.00" timeLoss="55.43" rerouteNo="1" devices="tripinfo_C3_1.7 routing_C3_1.7" vType="jeep" speedFactor="1.00" vaporized=""/>
    <tripinfo id="C3_1.9" depart="125.10" departLane="440471861#0_1" departPos="5.10" departPosLat="0.00" departSpeed="29.43" departDelay="0.00" arrival="181.70" arrivalLane="-140483224#1_2" arrivalPos="64.04" arrivalPosLat="0.00" arrivalSpeed="28.47" duration="56.60" routeLength="1052.78" waitingTime="0.00" waitingCount="0" stopTime="0.00" timeLoss="19.45" rerouteNo="1" devices="tripinfo_C3_1.9 routing_C3_1.9" vType="car" speedFactor="1.06" vaporized=""/>
    <tripinfo id="C3_1.8" depart="109.30" departLane="440471861#0_1" departPos="5.10" departPosLat="0.00" departSpeed="27.88" departDelay="0.00" arrival="183.00" arrivalLane="-140483224#1_1" arrivalPos="64.04" arrivalPosLat="-0.00" arrivalSpeed="27.76" duration="73.70" routeLength="1052.78" waitingTime="1.50" waitingCount="1" stopTime="0.00" timeLoss="34.57" rerouteNo="1" devices="tripinfo_C3_1.8 routing_C3_1.8" vType="car" speedFactor="1.00" vaporized=""/>
    <tripinfo id="A1_1.0" depart="92.00" departLane="-793339796#2_1" departPos="8.10" departPosLat="0.00" departSpeed="27.78" departDelay="8.00" arrival="185.90" arrivalLane="-145894807#0_1" arrivalPos="260.95" arrivalPosLat="0.00" arrivalSpeed="8.32" duration="93.90" routeLength="1053.72" waitingTime="0.00" waitingCount="0" stopTime="0.00" timeLoss="4.45" rerouteNo="1" devices="tripinfo_A1_1.0 routing_A1_1.0" vType="jeep" speedFactor="1.00" vaporized=""/>
    <tripinfo id="C3_1.10" depart="132.90" departLane="440471861#0_1" departPos="7.20" departPosLat="0.00" departSpeed="28.31" departDelay="0.00" arrival="186.50" arrivalLane="-140483224#1_2" arrivalPos="64.04" arrivalPosLat="0.00" arrivalSpeed="29.32" duration="53.60" routeLength="1050.68" waitingTime="0.00" waitingCount="0" stopTime="0.00" timeLoss="16.43" rerouteNo="1" devices="tripinfo_C3_1.10 routing_C3_1.10" vType="truck" speedFactor="1.06" vaporized=""/>
    <personinfo id="pf_2.9" depart="135.00" type="ped" speedFactor="1.17" duration="53.90" waitingTime="32.80" timeLoss="35.02" traveltime="53.90">
        <walk depart="135.00" departPos="15.09" arrival="188.90" arrivalPos="3.44" duration="53.90" routeLength="30.72" timeLoss="35.02" maxSpeed="1.63" waitingTime="32.80"/>
    </personinfo>
    <personinfo id="pf_2.11" depart="165.00" type="ped" speedFactor="1.02" duration="26.10" waitingTime="1.60" timeLoss="4.41" traveltime="26.10">
        <walk depart="165.00" departPos="15.09" arrival="191.10" arrivalPos="3.44" duration="26.10" routeLength="30.72" timeLoss="4.41" maxSpeed="1.42" waitingTime="1.60"/>
    </personinfo>
    <personinfo id="pf_2.10" depart="150.00" type="ped" speedFactor="0.99" duration="41.40" waitingTime="16.70" timeLoss="19.16" traveltime="41.40">
        <walk depart="150.00" departPos="15.09" arrival="191.40" arrivalPos="3.44" duration="41.40" routeLength="30.72" timeLoss="19.16" maxSpeed="1.38" waitingTime="16.70"/>
    </personinfo>
    <tripinfo id="D3_1.0" depart="15.30" departLane="140483224#1_1" departPos="2.30" departPosLat="0.00" departSpeed="26.42" departDelay="0.00" arrival="194.30" arrivalLane="-440471861#0_2" arrivalPos="31.52" arrivalPosLat="0.00" arrivalSpeed="26.42" duration="179.00" routeLength="1070.77" waitingTime="122.70" waitingCount="2" stopTime="0.00" timeLoss="136.91" rerouteNo="1" devices="tripinfo_D3_1.0 routing_D3_1.0" vType="tricycle" speedFactor="0.95" vaporized=""/>
    <tripinfo id="C1_1.0" depart="6.60" departLane="440471861#0_1" departPos="5.10" departPosLat="0.00" departSpeed="27.96" departDelay="0.00" arrival="198.90" arrivalLane="-793339796#2_2" arrivalPos="82.50" arrivalPosLat="0.00" arrivalSpeed="27.93" duration="192.30" routeLength="1653.99" waitingTime="102.50" waitingCount="2" stopTime="0.00" timeLoss="132.03" rerouteNo="1" devices="tripinfo_C1_1.0 routing_C1_1.0" vType="car" speedFactor="1.01" vaporized=""/>
    <tripinfo id="C1_1.1" depart="30.30" departLane="440471861#0_1" departPos="5.10" departPosLat="0.00" departSpeed="26.25" departDelay="0.00" arrival="202.60" arrivalLane="-793339796#2_2" arrivalPos="82.50" arrivalPosLat="0.00" arrivalSpeed="26.20" duration="172.30" routeLength="1653.99" waitingTime="73.00" waitingCount="1" stopTime="0.00" timeLoss="108.06" rerouteNo="1" devices="tripinfo_C1_1.1 routing_C1_1.1" vType="car" speedFactor="0.94" vaporized=""/>
    <tripinfo id="D3_1.1" depart="97.00" departLane="140483224#1_2" departPos="5.10" departPosLat="0.00" departSpeed="29.87" departDelay="2.30" arrival="203.30" arrivalLane="-440471861#0_2" arrivalPos="31.52" arrivalPosLat="0.00" arrivalSpeed="29.83" duration="106.30" routeLength="1067.97" waitingTime="49.40" waitingCount="2" stopTime="0.00" timeLoss="69.16" rerouteNo="1" devices="tripinfo_D3_1.1 routing_D3_1.1" vType="car" speedFactor="1.08" vaporized=""/>
    <personinfo id="pf_2.12" depart="180.00" type="ped" speedFactor="0.97" duration="25.10" waitingTime="0.00" timeLoss="2.37" traveltime="25.10">
        <walk depart="180.00" departPos="15.09" arrival="205.10" arrivalPos="3.44" duration="25.10" routeLength="30.72" timeLoss="2.37" maxSpeed="1.35" waitingTime="0.00"/>
    </personinfo>
    <tripinfo id="C1_1.2" depart="35.30" departLane="440471861#0_1" departPos="2.30" departPosLat="0.00" departSpeed="31.62" departDelay="0.00" arrival="206.20" arrivalLane="-793339796#2_2" arrivalPos="82.50" arrivalPosLat="0.00" arrivalSpeed="31.51" duration="170.90" routeLength="1656.79" waitingTime="70.40" waitingCount="1" stopTime="0.00" timeLoss="117.39" rerouteNo="1" devices="tripinfo_C1_1.2 routing_C1_1.2" vType="tricycle" speedFactor="1.14" vaporized=""/>
    <tripinfo id="C2_1.0" depart="40.30" departLane="440471861#0_2" departPos="5.10" departPosLat="0.00" departSpeed="26.65" departDelay="0.00" arrival="208.90" arrivalLane="-145894807#0_1" arrivalPos="260.95" arrivalPosLat="0.00" arrivalSpeed="7.87" duration="168.60" routeLength="1082.06" waitingTime="65.00" waitingCount="1" stopTime="0.00" timeLoss="79.65" rerouteNo="1" devices="tripinfo_C2_1.0 routing_C2_1.0" vType="car" speedFactor="0.96" vaporized=""/>
    <tripinfo id="C2_1.1" depart="54.60" departLane="440471861#0_2" departPos="5.10" departPosLat="0.00" departSpeed="27.21" departDelay="0.00" arrival="210.80" arrivalLane="-145894807#0_1" arrivalPos="260.95" arrivalPosLat="0.00" arrivalSpeed="8.09" duration="156.20" routeLength="1082.06" waitingTime="52.00" waitingCount="1" stopTime="0.00" timeLoss="69.16" rerouteNo="1" devices="tripinfo_C2_1.1 routing_C2_1.1" vType="car" speedFactor="0.98" vaporized=""/>
    <tripinfo id="D3_1.2" depart="121.80" departLane="140483224#1_1" departPos="7.20" departPosLat="0.00" departSpeed="27.42" departDelay="0.00" arrival="211.20" arrivalLane="-440471861#0_2" arrivalPos="31.52" arrivalPosLat="0.00" arrivalSpeed="27.36" duration="89.40" routeLength="1065.87" waitingTime="22.80" waitingCount="2" stopTime="0.00" timeLoss="48.93" rerouteNo="1" devices="tripinfo_D3_1.2 routing_D3_1.2" vType="truck" speedFactor="0.99" vaporized=""/>
    <tripinfo id="D3_1.3" depart="128.50" departLane="140483224#1_1" departPos="7.20" departPosLat="0.00" departSpeed="26.19" departDelay="0.00" arrival="213.70" arrivalLane="-440471861#0_2" arrivalPos="31.52" arrivalPosLat="0.00" arrivalSpeed="26.17" duration="85.20" routeLength="1065.87" waitingTime="19.90" waitingCount="1" stopTime="0.00" timeLoss="42.79" rerouteNo="1" devices="tripinfo_D3_1.3 routing_D3_1.3" vType="truck" speedFactor="0.94" vaporized=""/>
    <tripinfo id="C1_1.3" depart="56.20" departLane="440471861#0_1" departPos="8.10" departPosLat="0.00" departSpeed="27.78" departDelay="0.00" arrival="214.30" arrivalLane="-793339796#2_2" arrivalPos="82.50" arrivalPosLat="0.00" arrivalSpeed="24.72" duration="158.10" routeLength="1650.99" waitingTime="49.30" waitingCount="1" stopTime="0.00" timeLoss="97.55" rerouteNo="1" devices="tripinfo_C1_1.3 routing_C1_1.3" vType="jeep" speedFactor="1.00" vaporized=""/>
    <personinfo id="pf_4.6" depart="90.00" type="ped" speedFactor="1.01" duration="125.00" waitingTime="6.90" timeLoss="18.78" traveltime="125.00">
        <walk depart="90.00" departPos="25.00" arrival="147.20" arrivalPos="29.11" duration="57.20" routeLength="72.15" timeLoss="5.54" maxSpeed="1.40" waitingTime="0.00"/>
        <walk depart="147.20" departPos="29.11" arrival="215.00" arrivalPos="29.05" duration="67.80" routeLength="76.20" timeLoss="13.24" maxSpeed="1.40" waitingTime="6.90"/>
    </personinfo>
    <personinfo id="pf_2.13" depart="195.00" type="ped" speedFactor="1.18" duration="20.90" waitingTime="0.00" timeLoss="2.15" traveltime="20.90">
        <walk depart="195.00" departPos="15.09" arrival="215.90" arrivalPos="3.44" duration="20.90" routeLength="30.72" timeLoss="2.15" maxSpeed="1.64" waitingTime="0.00"/>
    </personinfo>
    <tripinfo id="C1_1.4" depart="57.10" departLane="440471861#0_1" departPos="8.10" departPosLat="0.00" departSpeed="26.03" departDelay="0.00" arrival="217.80" arrivalLane="-793339796#2_2" arrivalPos="82.50" arrivalPosLat="0.00" arrivalSpeed="24.55" duration="160.70" routeLength="1650.99" waitingTime="47.60" waitingCount="1" stopTime="0.00" timeLoss="100.08" rerouteNo="1" devices="tripinfo_C1_1.4 routing_C1_1.4" vType="jeep" speedFactor="1.00" vaporized=""/>
    <tripinfo id="C1_1.5" depart="63.70" departLane="440471861#0_1" departPos="5.10" departPosLat="0.00" departSpeed="28.30" departDelay="0.00" arrival="219.00" arrivalLane="-793339796#2_2" arrivalPos="82.50" arrivalPosLat="0.00" arrivalSpeed="26.02" duration="155.30" routeLength="1653.99" waitingTime="48.90" waitingCount="1" stopTime="0.00" timeLoss="95.71" rerouteNo="1" devices="tripinfo_C1_1.5 routing_C1_1.5" vType="car" speedFactor="1.02" vaporized=""/>
    <personinfo id="pf_4.7" depart="105.00" type="ped" speedFactor="1.01" duration="117.90" waitingTime="0.00" timeLoss="11.87" traveltime="117.90">
        <walk depart="105.00" departPos="25.00" arrival="162.30" arrivalPos="29.11" duration="57.30" routeLength="72.15" timeLoss="5.73" maxSpeed="1.40" waitingTime="0.00"/>
        <walk depart="162.30" departPos="29.11" arrival="222.90" arrivalPos="29.05" duration="60.60" routeLength="76.20" timeLoss="6.14" maxSpeed="1.40" waitingTime="0.00"/>
    </personinfo>
    <tripinfo id="C1_1.7" depart="125.70" departLane="440471861#0_2" departPos="5.10" departPosLat="0.00" departSpeed="24.06" departDelay="0.00" arrival="223.30" arrivalLane="-793339796#2_2" arrivalPos="82.50" arrivalPosLat="0.00" arrivalSpeed="23.94" duration="97.60" routeLength="1653.99" waitingTime="0.00" waitingCount="0" stopTime="0.00" timeLoss="27.59" rerouteNo="1" devices="tripinfo_C1_1.7 routing_C1_1.7" vType="car" speedFactor="0.87" vaporized=""/>
    <tripinfo id="C1_1.6" depart="82.10" departLane="440471861#0_1" departPos="7.20" departPosLat="0.00" departSpeed="27.04" departDelay="0.00" arrival="224.10" arrivalLane="-793339796#2_1" arrivalPos="82.50" arrivalPosLat="-0.00" arrivalSpeed="25.28" duration="142.00" routeLength="1651.89" waitingTime="33.30" waitingCount="8" stopTime="0.00" timeLoss="79.76" rerouteNo="1" devices="tripinfo_C1_1.6 routing_C1_1.6" vType="truck" speedFactor="0.97" vaporized=""/>
    <tripinfo id="C2_1.2" depart="136.50" departLane="440471861#0_2" departPos="5.10" departPosLat="0.00" departSpeed="27.59" departDelay="0.00" arrival="225.20" arrivalLane="-145894807#0_1" arrivalPos="260.95" arrivalPosLat="0.00" arrivalSpeed="8.22" duration="88.70" routeLength="1082.06" waitingTime="0.00" waitingCount="0" stopTime="0.00" timeLoss="2.78" rerouteNo="1" devices="tripinfo_C2_1.2 routing_C2_1.2" vType="car" speedFactor="0.99" vaporized=""/>
    <tripinfo id="A2_1.10" depart="137.40" departLane="-793339796#2_1" departPos="5.10" departPosLat="0.00" departSpeed="23.73" departDelay="9.20" arrival="226.10" arrivalLane="-440471861#0_1" arrivalPos="31.52" arrivalPosLat="0.00" arrivalSpeed="29.07" duration="88.70" routeLength="1081.27" waitingTime="34.20" waitingCount="1" stopTime="0.00" timeLoss="51.54" rerouteNo="1" devices="tripinfo_A2_1.10 routing_A2_1.10" vType="car" speedFactor="1.05" vaporized=""/>
    <tripinfo id="A2_1.9" depart="137.10" departLane="-793339796#2_2" departPos="5.10" departPosLat="0.00" departSpeed="27.04" departDelay="11.30" arrival="227.10" arrivalLane="-440471861#0_2" arrivalPos="31.52" arrivalPosLat="0.00" arrivalSpeed="27.03" duration="90.00" routeLength="1081.27" waitingTime="40.10" waitingCount="1" stopTime="0.00" timeLoss="50.00" rerouteNo="1" devices="tripinfo_A2_1.9 routing_A2_1.9" vType="car" speedFactor="0.97" vaporized=""/>
    <personinfo id="pf_4.8" depart="120.00" type="ped" speedFactor="1.09" duration="110.60" waitingTime="1.90" timeLoss="12.91" traveltime="110.60">
        <walk depart="120.00" departPos="25.00" arrival="174.80" arrivalPos="29.11" duration="54.80" routeLength="72.15" timeLoss="7.29" maxSpeed="1.52" waitingTime="1.90"/>