<?xml version="1.0" encoding="UTF-8"?>

<!-- generated on 2026-02-21 15:26:06 by Eclipse SUMO sumo Version 1.24.0
<sumoConfiguration xmlns:xsi="http://www.w3.org/2001/XMLSchema-instance" xsi:noNamespaceSchemaLocation="http://sumo.dlr.de/xsd/sumoConfiguration.xsd">

    <input>
        <net-file value="Balibago_traci/network/balibago_signalized.net.xml"/>
        <route-files value="Balibago_traci/demand/flows_training.rou.xml"/>
        <additional-files value="Balibago_traci/additionals/balibago.poly.xml,Balibago_traci/ additionals/balibago.add.xml"/>
    </input>

    <output>
        <tripinfo-output value="Balibago_traci/output_A2C/SD_A2C_trips.xml"/>
        <statistic-output value="Balibago_traci/output_A2C/SD_A2C_stats.xml"/>
    </output>

    <time>
        <begin value="0"/>
        <end value="10800"/>
        <step-length value="0.1"/>
    </time>

    <processing>
        <lateral-resolution value="0.1"/>
        <collision.action value="none"/>
        <collision.check-junctions value="false"/>
        <collision.mingap-factor value="0"/>
    </processing>

    <report>
        <no-warnings value="true"/>
    </report>

    <traci_server>
        <remote-port value="49317"/>
    </traci_server>

    <gui_only>
        <delay value="0"/>
    </gui_only>

</sumoConfiguration>
-->

<tripinfos xmlns:xsi="http://www.w3.org/2001/XMLSchema-instance" xsi:noNamespaceSchemaLocation="http://sumo.dlr.de/xsd/tripinfo_file.xsd">
    <tripinfo id="BalibagotoNuvali_1.0" depart="9.20" departLane="777619905_1" departPos="5.10" departPosLat="0.00" departSpeed="0.00" departDelay="0.00" arrival="85.60" arrivalLane="145507700#3_1" arrivalPos="783.31" arrivalPosLat="-0.00" arrivalSpeed="27.76" duration="76.40" routeLength="1312.87" waitingTime="0.00" waitingCount="0" stopTime="0.00" timeLoss="23.33" rerouteNo="1" devices="tripinfo_BalibagotoNuvali_1.0 routing_BalibagotoNuvali_1.0" vType="jeep" speedFactor="1.00" vaporized=""/>
    <personinfo id="pf_JollibeetoPalengke_1.0" depart="0.00" type="ped" speedFactor="1.06" duration="118.50" waitingTime="0.00" timeLoss="11.67" traveltime="118.50">
        <walk depart="0.00" departPos="10.42" arrival="118.50" arrivalPos="27.04" duration="118.50" routeLength="157.27" timeLoss="11.67" maxSpeed="1.47" waitingTime="0.00"/>
    </personinfo>
    <personinfo id="pf_PalengketoJollibee_1.0" depart="0.00" type="ped" speedFactor="0.97" duration="135.90" waitingTime="0.00" timeLoss="13.40" traveltime="135.90">
        <walk depart="0.00" departPos="25.00" arrival="135.90" arrivalPos="5.21" duration="135.90" routeLength="164.52" timeLoss="13.40" maxSpeed="1.34" waitingTime="0.00"/>
    </personinfo>
    <tripinfo id="BiñantoBalibago_1.0" depart="90.20" departLane="553887793#0_1" departPos="8.10" departPosLat="0.00" departSpeed="27.78" departDelay="0.00" arrival="152.50" arrivalLane="-32083237#0_1" arrivalPos="36.46" arrivalPosLat="0.00" arrivalSpeed="11.31" duration="62.30" routeLength="996.33" waitingTime="0.00" waitingCount="0" stopTime="0.00" timeLoss="22.69" rerouteNo="1" devices="tripinfo_BiñantoBalibago_1.0 routing_BiñantoBalibago_1.0" vType="jeep" speedFactor="1.00" vaporized=""/>
    <personinfo id="pf_PalengketoJollibee_1.1" depart="75.00" type="ped" speedFactor="1.15" duration="114.90" waitingTime="0.00" timeLoss="11.70" traveltime="114.90">
        <walk depart="75.00" departPos="25.00" arrival="189.90" arrivalPos="5.21" duration="114.90" routeLength="164.52" timeLoss="11.70" maxSpeed="1.59" waitingTime="0.00"/>
    </personinfo>
    <personinfo id="pf_JollibeetoPalengke_1.1" depart="65.50" type="ped" speedFactor="0.94" duration="134.10" waitingTime="0.00" timeLoss="13.42" traveltime="134.10">
        <walk depart="65.50" departPos="10.42" arrival="199.60" arrivalPos="27.04" duration="134.10" routeLength="157.27" timeLoss="13.42" maxSpeed="1.30" waitingTime="0.00"/>
    </personinfo>
    <personinfo id="pf_JollibeetoSTI_1.0" depart="0.00" type="ped" speedFactor="1.13" duration="239.20" waitingTime="1.10" timeLoss="26.08" traveltime="239.20">
        <walk depart="0.00" departPos="10.42" arrival="239.20" arrivalPos="19.02" duration="239.20" routeLength="335.01" timeLoss="26.08" maxSpeed="1.57" waitingTime="1.10"/>
    </personinfo>
    <tripinfo id="CalambatoNuvali_1.0" depart="49.20" departLane="185930141#0_2" departPos="5.10" departPosLat="0.00" departSpeed="24.29" departDelay="0.00" arrival="242.70" arrivalLane="145507700#3_1" arrivalPos="783.31" arrivalPosLat="-0.00" arrivalSpeed="24.20" duration="193.50" routeLength="2332.87" waitingTime="78.10" waitingCount="1" stopTime="0.00" timeLoss="95.65" rerouteNo="1" devices="tripinfo_CalambatoNuvali_1.0 routing_CalambatoNuvali_1.0" vType="car" speedFactor="0.87" vaporized=""/>
    <personinfo id="pf_JollibeetoPalengke_1.2" depart="131.00" type="ped" speedFactor="1.01" duration="124.30" waitingTime="0.00" timeLoss="12.23" traveltime="124.30">
        <walk depart="131.00" departPos="10.42" arrival="255.30" arrivalPos="27.04" duration="124.30" routeLength="157.27" timeLoss="12.23" maxSpeed="1.40" waitingTime="0.00"/>
    </personinfo>
    <tripinfo id="CalambatoBalibago_1.0" depart="194.30" departLane="185930141#0_2" departPos="2.30" departPosLat="0.00" departSpeed="22.99" departDelay="0.00" arrival="258.90" arrivalLane="89908334_1" arrivalPos="36.84" arrivalPosLat="0.00" arrivalSpeed="11.07" duration="64.60" routeLength="913.97" waitingTime="0.00" waitingCount="0" stopTime="0.00" timeLoss="14.48" rerouteNo="1" devices="tripinfo_CalambatoBalibago_1.0 routing_CalambatoBalibago_1.0" vType="tricycle" speedFactor="0.83" vaporized=""/>
    <personinfo id="pf_STItoSakayan_1.0" depart="0.00" type="ped" speedFactor="1.03" duration="288.60" waitingTime="0.00" timeLoss="28.94" traveltime="288.60">
        <walk depart="0.00" departPos="25.00" arrival="288.60" arrivalPos="27.04" duration="288.60" routeLength="373.08" timeLoss="28.94" maxSpeed="1.44" waitingTime="0.00"/>
    </personinfo>
    <personinfo id="pf_PalengketoJollibee_1.2" depart="150.00" type="ped" speedFactor="0.98" duration="145.10" waitingTime="10.30" timeLoss="23.72" traveltime="145.10">
        <walk depart="150.00" departPos="25.00" arrival="295.10" arrivalPos="5.21" duration="145.10" routeLength="164.52" timeLoss="23.72" maxSpeed="1.36" waitingTime="10.30"/>
    </personinfo>
    <tripinfo id="StaRosatoBalibago_1.0" depart="141.60" departLane="92878383#0_1" departPos="8.10" departPosLat="0.00" departSpeed="8.33" departDelay="0.00" arrival="305.30" arrivalLane="-32083237#0_1" arrivalPos="36.46" arrivalPosLat="0.00" arrivalSpeed="11.12" duration="163.70" routeLength="1358.46" waitingTime="0.00" waitingCount="0" stopTime="0.00" timeLoss="30.36" rerouteNo="1" devices="tripinfo_StaRosatoBalibago_1.0 routing_StaRosatoBalibago_1.0" vType="jeep" speedFactor="1.00" vaporized=""/>
    <tripinfo id="StaRosatoCalamba_1.0" depart="77.50" departLane="92878383#0_1" departPos="5.10" departPosLat="0.00" departSpeed="8.63" departDelay="0.00" arrival="307.50" arrivalLane="-185930141#0_2" arrivalPos="428.88" arrivalPosLat="0.00" arrivalSpeed="28.75" duration="230.00" routeLength="1855.46" waitingTime="73.60" waitingCount="1" stopTime="0.00" timeLoss="85.48" rerouteNo="1" devices="tripinfo_StaRosatoCalamba_1.0 routing_StaRosatoCalamba_1.0" vType="car" speedFactor="1.04" vaporized=""/>
    <personinfo id="pf_JollibeetoPalengke_1.3" depart="196.40" type="ped" speedFactor="1.08" duration="117.20" waitingTime="0.70" timeLoss="12.61" traveltime="117.20">
        <walk depart="196.40" departPos="10.42" arrival="313.60" arrivalPos="27.04" duration="117.20" routeLength="157.27" timeLoss="12.61" maxSpeed="1.50" waitingTime="0.70"/>
    </personinfo>
    <personinfo id="pf_PalengketoJollibee_1.3" depart="225.00" type="ped" speedFactor="1.00" duration="131.80" waitingTime="0.40" timeLoss="13.54" traveltime="131.80">
        <walk depart="225.00" departPos="25.00" arrival="356.80" arrivalPos="5.21" duration="131.80" routeLength="164.52" timeLoss="13.54" maxSpeed="1.39" waitingTime="0.40"/>
    </personinfo>
    <personinfo id="pf_STItoSakayan_1.1" depart="94.80" type="ped" speedFactor="1.06" duration="280.30" waitingTime="0.00" timeLoss="28.03" traveltime="280.30">
        <walk depart="94.80" departPos="25.00" arrival="375.10" arrivalPos="27.04" duration="280.30" routeLength="373.08" timeLoss="28.03" maxSpeed="1.48" waitingTime="0.00"/>
    </personinfo>
    <personinfo id="pf_JollibeetoSTI_1.1" depart="90.00" type="ped" speedFactor="0.93" duration="288.10" waitingTime="0.00" timeLoss="29.10" traveltime="288.10">
        <walk depart="90.00" departPos="10.42" arrival="378.10" arrivalPos="19.02" duration="288.10" routeLength="335.01" timeLoss="29.10" maxSpeed="1.29" waitingTime="0.00"/>
    </personinfo>
    <personinfo id="pf_JollibeetoPalengke_1.4" depart="261.90" type="ped" speedFactor="1.03" duration="126.00" waitingTime="4.30" timeLoss="16.09" traveltime="126.00">
        <walk depart="261.90" departPos="10.42" arrival="387.90" arrivalPos="27.04" duration="126.00" routeLength="157.27" timeLoss="16.09" maxSpeed="1.43" waitingTime="4.30"/>
    </personinfo>
    <personinfo id="pf_JollibeetoSTI_1.2" depart="180.00" type="ped" speedFactor="1.18" duration="227.00" waitingTime="0.00" timeLoss="22.34" traveltime="227.00">
        <walk depart="180.00" departPos="10.42" arrival="407.00" arrivalPos="19.02" duration="227.00" routeLength="335.01" timeLoss="22.34" maxSpeed="1.64" waitingTime="0.00"/>
    </personinfo>
    <tripinfo id="NuvalitoCalamba_1.0" depart="121.00" departLane="-145507700#3_1" departPos="5.10" departPosLat="0.00" departSpeed="24.35" departDelay="0.00" arrival="411.30" arrivalLane="-185930141#0_1" arrivalPos="428.88" arrivalPosLat="-0.00" arrivalSpeed="24.32" duration="290.30" routeLength="2321.76" waitingTime="168.70" waitingCount="2" stopTime="0.00" timeLoss="193.59" rerouteNo="1" devices="tripinfo_NuvalitoCalamba_1.0 routing_NuvalitoCalamba_1.0" vType="car" speedFactor="0.88" vaporized=""/>
    <tripinfo id="StaRosatoCalamba_1.1" depart="93.90" departLane="92878383#0_1" departPos="7.20" departPosLat="0.00" departSpeed="7.83" departDelay="0.00" arrival="416.60" arrivalLane="-185930141#0_1" arrivalPos="428.88" arrivalPosLat="-0.00" arrivalSpeed="26.09" duration="322.70" routeLength="1853.36" waitingTime="118.60" waitingCount="3" stopTime="0.00" timeLoss="163.58" rerouteNo="1" devices="tripinfo_StaRosatoCalamba_1.1 routing_StaRosatoCalamba_1.1" vType="truck" speedFactor="0.94" vaporized=""/>
    <tripinfo id="CalambatoBalibago_1.1" depart="238.20" departLane="185930141#0_2" departPos="12.10" departPosLat="0.00" departSpeed="27.78" departDelay="0.00" arrival="417.10" arrivalLane="89908334_1" arrivalPos="36.84" arrivalPosLat="0.00" arrivalSpeed="9.00" duration="178.90" routeLength="904.17" waitingTime="108.90" waitingCount="1" stopTime="0.00" timeLoss="137.84" rerouteNo="1" devices="tripinfo_CalambatoBalibago_1.1 routing_CalambatoBalibago_1.1" vType="bus" speedFactor="1.00" vaporized=""/>
    <personinfo id="pf_PalengketoJollibee_1.4" depart="300.00" type="ped" speedFactor="1.04" duration="131.80" waitingTime="5.40" timeLoss="18.21" traveltime="131.80">
        <walk depart="300.00" departPos="25.00" arrival="431.80" arrivalPos="5.21" duration="131.80" routeLength="164.52" timeLoss="18.21" maxSpeed="1.45" waitingTime="5.40"/>
    </personinfo>
    <personinfo id="pf_TargettoSakayan_1.0" depart="0.00" type="ped" speedFactor="1.03" duration="466.30" waitingTime="4.10" timeLoss="50.50" traveltime="466.30">
        <walk depart="0.00" departPos="25.00" arrival="466.30" arrivalPos="27.04" duration="466.30" routeLength="596.09" timeLoss="50.50" maxSpeed="1.43" waitingTime="4.10"/>
    </personinfo>
    <personinfo id="pf_JollibeetoPalengke_1.5" depart="327.30" type="ped" speedFactor="0.83" duration="151.30" waitingTime="0.00" timeLoss="15.03" traveltime="151.30">
        <walk depart="327.30" departPos="10.42" arrival="478.60" arrivalPos="27.04" duration="151.30" routeLength="157.27" timeLoss="15.03" maxSpeed="1.15" waitingTime="0.00"/>
    </personinfo>
    <personinfo id="pf_STItoSakayan_1.2" depart="189.50" type="ped" speedFactor="0.96" duration="310.50" waitingTime="0.00" timeLoss="30.57" traveltime="310.50">
        <walk depart="189.50" departPos="25.00" arrival="500.00" arrivalPos="27.04" duration="310.50" routeLength="373.08" timeLoss="30.57" maxSpeed="1.33" waitingTime="0.00"/>
    </personinfo>
    <personinfo id="pf_JollibeetoSTI_1.3" depart="270.00" type="ped" speedFactor="1.15" duration="234.00" waitingTime="0.00" timeLoss="25.05" traveltime="234.00">
        <walk depart="270.00" departPos="10.42" arrival="504.00" arrivalPos="19.02" duration="234.00" routeLength="335.01" timeLoss="25.05" maxSpeed="1.60" waitingTime="0.00"/>
    </personinfo>
    <personinfo id="pf_JollibeetoTarget_1.0" depart="0.00" type="ped" speedFactor="0.88" duration="507.30" waitingTime="1.40" timeLoss="51.57" traveltime="507.30">
        <walk depart="0.00" departPos="10.42" arrival="507.30" arrivalPos="16.04" duration="507.30" routeLength="555.05" timeLoss="51.57" maxSpeed="1.22" waitingTime="1.40"/>
    </personinfo>
    <personinfo id="pf_PalengketoJollibee_1.5" depart="375.00" type="ped" speedFactor="1.01" duration="132.70" waitingTime="1.80" timeLoss="15.08" traveltime="132.70">
        <walk depart="375.00" departPos="25.00" arrival="507.70" arrivalPos="5.21" duration="132.70" routeLength="164.52" timeLoss="15.08" maxSpeed="1.40" waitingTime="1.80"/>
    </personinfo>
    <tripinfo id="CalambatoNuvali_1.1" depart="272.50" departLane="185930141#0_2" departPos="8.10" departPosLat="0.00" departSpeed="27.78" departDelay="0.00" arrival="509.10" arrivalLane="145507700#3_1" arrivalPos="783.31" arrivalPosLat="-0.00" arrivalSpeed="27.74" duration="236.60" routeLength="2329.87" waitingTime="88.70" waitingCount="3" stopTime="0.00" timeLoss="151.09" rerouteNo="1" devices="tripinfo_CalambatoNuvali_1.1 routing_CalambatoNuvali_1.1" vType="jeep" speedFactor="1.00" vaporized=""/>
    <personinfo id="pf_JollibeetoPalengke_1.6" depart="392.80" type="ped" speedFactor="1.05" duration="120.10" waitingTime="0.00" timeLoss="11.82" traveltime="120.10">
        <walk depart="392.80" departPos="10.42" arrival="512.90" arrivalPos="27.04" duration="120.10" routeLength="157.27" timeLoss="11.82" maxSpeed="1.45" waitingTime="0.00"/>
    </personinfo>
    <tripinfo id="CalambatoStaRosa_1.0" depart="289.50" departLane="185930141#0_1" departPos="2.30" departPosLat="0.00" departSpeed="25.73" departDelay="0.00" arrival="529.30" arrivalLane="-92878383#0_1" arrivalPos="603.68" arrivalPosLat="0.00" arrivalSpeed="7.66" duration="239.80" routeLength="1811.39" waitingTime="53.40" waitingCount="1" stopTime="0.00" timeLoss="74.63" rerouteNo="1" devices="tripinfo_CalambatoStaRosa_1.0 routing_CalambatoStaRosa_1.0" vType="tricycle" speedFactor="0.93" vaporized=""/>
    <tripinfo id="CalambatoBalibago_1.2" depart="267.10" departLane="185930141#0_2" departPos="12.10" departPosLat="0.00" departSpeed="27.78" departDelay="0.00" arrival="552.90" arrivalLane="89908334_1" arrivalPos="36.84" arrivalPosLat="0.00" arrivalSpeed="8.99" duration="285.80" routeLength="904.17" waitingTime="205.50" waitingCount="2" stopTime="0.00" timeLoss="244.61" rerouteNo="1" devices="tripinfo_CalambatoBalibago_1.2 routing_CalambatoBalibago_1.2" vType="bus" speedFactor="1.00" vaporized=""/>
    <tripinfo id="CalambatoBalibago_1.3" depart="395.50" departLane="185930141#0_2" departPos="8.10" departPosLat="0.00" departSpeed="27.78" departDelay="0.00" arrival="557.60" arrivalLane="89908334_1" arrivalPos="36.84" arrivalPosLat="0.00" arrivalSpeed="8.94" duration="162.10" routeLength="908.17" waitingTime="83.70" waitingCount="1" stopTime="0.00" timeLoss="120.79" rerouteNo="1" devices="tripinfo_CalambatoBalibago_1.3 routing_CalambatoBalibago_1.3" vType="jeep" speedFactor="1.00" vaporized=""/>
    <tripinfo id="CalambatoBalibago_1.4" depart="410.80" departLane="185930141#0_2" departPos="2.30" departPosLat="0.00" departSpeed="29.85" departDelay="0.00" arrival="560.20" arrivalLane="89908334_1" arrivalPos="36.84" arrivalPosLat="0.00" arrivalSpeed="11.20" duration="149.40" routeLength="913.97" waitingTime="72.40" waitingCount="1" stopTime="0.00" timeLoss="110.72" rerouteNo="1" devices="tripinfo_CalambatoBalibago_1.4 routing_CalambatoBalibago_1.4" vType="tricycle" speedFactor="1.07" vaporized=""/>
    <tripinfo id="CalambatoBiñan_1.0" depart="480.60" departLane="185930141#0_1" departPos="7.20" departPosLat="0.00" departSpeed="28.04" departDelay="0.00" arrival="562.90" arrivalLane="-553887793#0_1" arrivalPos="201.31" arrivalPosLat="0.00" arrivalSpeed="27.99" duration="82.30" routeLength="1505.57" waitingTime="1.30" waitingCount="1" stopTime="0.00" timeLoss="28.52" rerouteNo="1" devices="tripinfo_CalambatoBiñan_1.0 routing_CalambatoBiñan_1.0" vType="truck" speedFactor="1.01" vaporized=""/>
    <tripinfo id="BiñantoCalamba_1.0" depart="348.40" departLane="553887793#0_1" departPos="7.20" departPosLat="0.00" departSpeed="27.47" departDelay="0.00" arrival="566.70" arrivalLane="-185930141#0_1" arrivalPos="428.88" arrivalPosLat="0.00" arrivalSpeed="27.44" duration="218.30" routeLength="1505.57" waitingTime="124.60" waitingCount="2" stopTime="0.00" timeLoss="163.44" rerouteNo="1" devices="tripinfo_BiñantoCalamba_1.0 routing_BiñantoCalamba_1.0" vType="truck" speedFactor="0.99" vaporized=""/>
    <personinfo id="pf_PuregoldtoSakayan_1.0" depart="0.00" type="ped" speedFactor="1.13" duration="569.30" waitingTime="105.80" timeLoss="151.63" traveltime="569.30">
        <walk depart="0.00" departPos="9.99" arrival="569.30" arrivalPos="27.04" duration="569.30" routeLength="654.93" timeLoss="151.63" maxSpeed="1.57" waitingTime="105.80"/>
    </personinfo>
    <personinfo id="pf_PalengketoJollibee_1.6" depart="450.00" type="ped" speedFactor="1.02" duration="129.00" waitingTime="0.00" timeLoss="13.09" traveltime="129.00">
        <walk depart="450.00" departPos="25.00" arrival="579.00" arrivalPos="5.21" duration="129.00" routeLength="164.52" timeLoss="13.09" maxSpeed="1.42" waitingTime="0.00"/>
    </personinfo>
    <tripinfo id="StaRosatoBalibago_1.1" depart="444.60" departLane="92878383#0_1" departPos="2.30" departPosLat="0.00" departSpeed="8.55" departDelay="0.00" arrival="586.60" arrivalLane="-32083237#0_1" arrivalPos="36.46" arrivalPosLat="0.00" arrivalSpeed="15.92" duration="142.00" routeLength="1364.26" waitingTime="0.00" waitingCount="0" stopTime="0.00" timeLoss="11.39" rerouteNo="1" devices="tripinfo_StaRosatoBalibago_1.1 routing_StaRosatoBalibago_1.1" vType="tricycle" speedFactor="1.03" vaporized=""/>
    <personinfo id="pf_JollibeetoPalengke_1.7" depart="458.20" type="ped" speedFactor="0.89" duration="141.90" waitingTime="0.00" timeLoss="14.09" traveltime="141.90">
        <walk depart="458.20" departPos="10.42" arrival="600.10" arrivalPos="27.04" duration="141.90" routeLength="157.27" timeLoss="14.09" maxSpeed="1.23" waitingTime="0.00"/>
    </personinfo>
    <personinfo id="pf_STItoSakayan_1.3" depart="284.30" type="ped" speedFactor="0.93" duration="321.70" waitingTime="0.00" timeLoss="32.15" traveltime="321.70">
        <walk depart="284.30" departPos="25.00" arrival="606.00" arrivalPos="27.04" duration="321.70" routeLength="373.08" timeLoss="32.15" maxSpeed="1.29" waitingTime="0.00"/>
    </personinfo>
    <personinfo id="pf_JollibeetoPureGold_1.1" depart="112.50" type="ped" speedFactor="1.04" duration="494.40" waitingTime="11.00" timeLoss="59.74" traveltime="494.40">
        <walk depart="112.50" departPos="10.42" arrival="606.90" arrivalPos="5.00" duration="494.40" routeLength="627.84" timeLoss="59.74" maxSpeed="1.44" waitingTime="11.00"/>
    </personinfo>
    <tripinfo id="BiñantoStaRosa_1.0" depart="347.60" departLane="553887793#0_2" departPos="5.10" departPosLat="0.00" departSpeed="29.37" departDelay="0.00" arrival="613.70" arrivalLane="-92878383#0_1" arrivalPos="603.68" arrivalPosLat="-0.00" arrivalSpeed="8.73" duration="266.10" routeLength="1785.95" waitingTime="108.70" waitingCount="1" stopTime="0.00" timeLoss="120.19" rerouteNo="1" devices="tripinfo_BiñantoStaRosa_1.0 routing_BiñantoStaRosa_1.0" vType="car" speedFactor="1.06" vaporized=""/>
    <personinfo id="pf_JollibeetoTarget_1.1" depart="94.80" type="ped" speedFactor="0.85" duration="521.90" waitingTime="0.00" timeLoss="51.97" traveltime="521.90">
        <walk depart="94.80" departPos="10.42" arrival="616.70" arrivalPos="16.04" duration="521.90" routeLength="555.05" timeLoss="51.97" maxSpeed="1.18" waitingTime="0.00"/>
    </personinfo>
    <personinfo id="pf_JollibeetoSTI_1.4" depart="360.00" type="ped" speedFactor="1.01" duration="266.80" waitingTime="0.00" timeLoss="26.84" traveltime="266.80">
        <walk depart="360.00" departPos="10.42" arrival="626.80" arrivalPos="19.02" duration="266.80" routeLength="335.01" timeLoss="26.84" maxSpeed="1.40" waitingTime="0.00"/>
    </personinfo>
    <tripinfo id="NuvalitoBiñan_1.0" depart="405.00" departLane="-145507700#3_2" departPos="8.10" departPosLat="0.00" departSpeed="27.78" departDelay="0.00" arrival="634.40" arrivalLane="-553887793#0_2" arrivalPos="201.31" arrivalPosLat="0.00" arrivalSpeed="27.76" duration="229.40" routeLength="2090.39" waitingTime="125.70" waitingCount="1" stopTime="0.00" timeLoss="152.79" rerouteNo="1" devices="tripinfo_NuvalitoBiñan_1.0 routing_NuvalitoBiñan_1.0" vType="jeep" speedFactor="1.00" vaporized=""/>
    <tripinfo id="NuvalitoBiñan_1.1" depart="559.40" departLane="-145507700#3_2" departPos="8.10" departPosLat="0.00" departSpeed="27.78" departDelay="0.00" arrival="654.00" arrivalLane="-553887793#0_2" arrivalPos="201.31" arrivalPosLat="0.00" arrivalSpeed="27.76" duration="94.60" routeLength="2090.39" waitingTime="0.00" waitingCount="0" stopTime="0.00" timeLoss="18.00" rerouteNo="1" devices="tripinfo_NuvalitoBiñan_1.1 routing_NuvalitoBiñan_1.1" vType="jeep" speedFactor="1.00" vaporized=""/>
    <personinfo id="pf_TargettoSakayan_1.2" depart="218.20" type="ped" speedFactor="1.12" duration="436.30" waitingTime="0.00" timeLoss="52.55" traveltime="436.30">
        <walk depart="218.20" departPos="25.00" arrival="654.50" arrivalPos="27.04" duration="436.30" routeLength="596.09" timeLoss="52.55" maxSpeed="1.55" waitingTime="0.00"/>
    </personinfo>
    <personinfo id="pf_PalengketoJollibee_1.7" depart="525.00" type="ped" speedFactor="1.02" duration="129.60" waitingTime="0.00" timeLoss="13.09" traveltime="129.60">
        <walk depart="525.00" departPos="25.00" arrival="654.60" arrivalPos="5.21" duration="129.60" routeLength="164.52" timeLoss="13.09" maxSpeed="1.41" waitingTime="0.00"/>
    </personinfo>
    <personinfo id="pf_JollibeetoPalengke_1.8" depart="523.70" type="ped" speedFactor="0.94" duration="133.90" waitingTime="0.00" timeLoss="13.17" traveltime="133.90">
        <walk depart="523.70" departPos="10.42" arrival="657.60" arrivalPos="27.04" duration="133.90" routeLength="157.27" timeLoss="13.17" maxSpeed="1.30" waitingTime="0.00"/>
    </personinfo>
    <personinfo id="pf_JollibeetoTarget_1.3" depart="284.30" type="ped" speedFactor="1.17" duration="379.30" waitingTime="0.00" timeLoss="37.41" traveltime="379.30">
        <walk depart="284.30" departPos="10.42" arrival="663.60" arrivalPos="16.04" duration="379.30" routeLength="555.05" timeLoss="37.41" maxSpeed="1.62" waitingTime="0.00"/>
    </personinfo>
    <personinfo id="pf_JollibeetoPureGold_1.0" depart="0.00" type="ped" speedFactor="0.91" duration="664.10" waitingTime="114.90" timeLoss="169.85" traveltime="664.10">
        <walk depart="0.00" departPos="10.42" arrival="664.10" arrivalPos="5.00" duration="664.10" routeLength="627.84" timeLoss="169.85" maxSpeed="1.27" waitingTime="114.90"/>
    </personinfo>
    <personinfo id="pf_JollibeetoSTI_1.5" depart="450.00" type="ped" speedFactor="1.17" duration="229.40" waitingTime="0.70" timeLoss="23.55" traveltime="229.40">
        <walk depart="450.00" departPos="10.42" arrival="679.40" arrivalPos="19.02" duration="229.40" routeLength="335.01" timeLoss="23.55" maxSpeed="1.63" waitingTime="0.70"/>
    </personinfo>
    <personinfo id="pf_TargettoSakayan_1.1" depart="109.10" type="ped" speedFactor="0.82" duration="580.80" waitingTime="0.00" timeLoss="58.74" traveltime="580.80">
        <walk depart="109.10" departPos="25.00" arrival="689.90" arrivalPos="27.04" duration="580.80" routeLength="596.09" timeLoss="58.74" maxSpeed="1.14" waitingTime="0.00"/>
    </personinfo>
    <personinfo id="pf_JollibeetoTarget_1.2" depart="189.50" type="ped" speedFactor="0.85" duration="519.90" waitingTime="0.40" timeLoss="52.44" traveltime="519.90">
        <walk depart="189.50" departPos="10.42" arrival="709.40" arrivalPos="16.04" duration="519.90" routeLength="555.05" timeLoss="52.44" maxSpeed="1.19" waitingTime="0.40"/>
    </personinfo>
    <tripinfo id="BiñantoNuvali_1.0" depart="600.40" departLane="553887793#0_1" departPos="8.10" departPosLat="0.00" departSpeed="27.78" departDelay="0.00" arrival="711.20" arrivalLane="145507700#3_1" arrivalPos="783.31" arrivalPosLat="-0.00" arrivalSpeed="27.74" duration="110.80" routeLength="2080.73" waitingTime="7.50" waitingCount="1" stopTime="0.00" timeLoss="34.86" rerouteNo="1" devices="tripinfo_BiñantoNuvali_1.0 routing_BiñantoNuvali_1.0" vType="jeep" speedFactor="1.00" vaporized=""/>
    <tripinfo id="NuvalitoBalibago_1.0" depart="596.20" departLane="-145507700#3_1" departPos="2.30" departPosLat="0.00" departSpeed="31.39" departDelay="0.00" arrival="711.90" arrivalLane="32083201#1_1" arrivalPos="58.53" arrivalPosLat="0.00" arrivalSpeed="15.64" duration="115.70" routeLength="2060.89" waitingTime="0.00" waitingCount="0" stopTime="0.00" timeLoss="21.82" rerouteNo="1" devices="tripinfo_NuvalitoBalibago_1.0 routing_NuvalitoBalibago_1.0" vType="tricycle" speedFactor="1.13" vaporized=""/>
    <tripinfo id="StaRosatoCalamba_1.2" depart="216.90" departLane="92878383#0_1" departPos="5.10" departPosLat="0.00" departSpeed="10.29" departDelay="0.00" arrival="723.00" arrivalLane="-185930141#0_1" arrivalPos="428.88" arrivalPosLat="-0.00" arrivalSpeed="34.21" duration="506.10" routeLength="1855.46" waitingTime="359.40" waitingCount="2" stopTime="0.00" timeLoss="384.88" rerouteNo="1" devices="tripinfo_StaRosatoCalamba_1.2 routing_StaRosatoCalamba_1.2" vType="car" speedFactor="1.24" vaporized=""/>
    <tripinfo id="BiñantoBalibago_1.1" depart="661.50" departLane="553887793#0_1" departPos="12.10" departPosLat="0.00" departSpeed="27.78" departDelay="0.00" arrival="723.50" arrivalLane="-32083237#0_1" arrivalPos="36.46" arrivalPosLat="0.00" arrivalSpeed="11.37" duration="62.00" routeLength="992.33" waitingTime="0.00" waitingCount="0" stopTime="0.00" timeLoss="22.56" rerouteNo="1" devices="tripinfo_BiñantoBalibago_1.1 routing_BiñantoBalibago_1.1" vType="bus" speedFactor="1.00" vaporized=""/>
    <personinfo id="pf_STItoSakayan_1.4" depart="379.00" type="ped" speedFactor="0.87" duration="345.10" waitingTime="0.10" timeLoss="34.88" traveltime="345.10">
        <walk depart="379.00" departPos="25.00" arrival="724.10" arrivalPos="27.04" duration="345.10" routeLength="373.08" timeLoss="34.88" maxSpeed="1.20" waitingTime="0.10"/>
    </personinfo>
    <personinfo id="pf_JollibeetoPalengke_1.9" depart="589.10" type="ped" speedFactor="0.86" duration="147.10" waitingTime="0.00" timeLoss="14.95" traveltime="147.10">
        <walk depart="589.10" departPos="10.42" arrival="736.20" arrivalPos="27.04" duration="147.10" routeLength="157.27" timeLoss="14.95" maxSpeed="1.19" waitingTime="0.00"/>
    </personinfo>
    <personinfo id="pf_STItoSakayan_1.5" depart="473.70" type="ped" speedFactor="1.10" duration="271.60" waitingTime="0.00" timeLoss="27.07" traveltime="271.60">
        <walk depart="473.70" departPos="25.00" arrival="745.30" arrivalPos="27.04" duration="271.60" routeLength="373.08" timeLoss="27.07" maxSpeed="1.53" waitingTime="0.00"/>
    </personinfo>
    <personinfo id="pf_PalengketoJollibee_1.8" depart="600.00" type="ped" speedFactor="0.89" duration="147.50" waitingTime="0.00" timeLoss="14.67" traveltime="147.50">
        <walk depart="600.00" departPos="25.00" arrival="747.50" arrivalPos="5.21" duration="147.50" routeLength="164.52" timeLoss="14.67" maxSpeed="1.24" waitingTime="0.00"/>
    </personinfo>
    <personinfo id="pf_JollibeetoPalengke_1.10" depart="654.60" type="ped" speedFactor="1.09" duration="117.60" waitingTime="2.00" timeLoss="13.78" traveltime="117.60">
        <walk depart="654.60" departPos="10.42" arrival="772.20" arrivalPos="27.04" duration="117.60" routeLength="157.27" timeLoss="13.78" maxSpeed="1.51" waitingTime="2.00"/>
    </personinfo>
    <personinfo id="pf_TargettoSakayan_1.3" depart="327.30" type="ped" speedFactor="1.01" duration="473.50" waitingTime="0.00" timeLoss="47.85" traveltime="473.50">
        <walk depart="327.30" departPos="25.00" arrival="800.80" arrivalPos="27.04" duration="473.50" routeLength="596.09" timeLoss="47.85" maxSpeed="1.40" waitingTime="0.00"/>
    </personinfo>
    <tripinfo id="CalambatoNuvali_1.2" depart="592.90" departLane="185930141#0_2" departPos="5.10" departPosLat="0.00" departSpeed="24.79" departDelay="0.00" arrival="808.20" arrivalLane="145507700#3_1" arrivalPos="783.31" arrivalPosLat="-0.00" arrivalSpeed="24.76" duration="215.30" routeLength="2332.87" waitingTime="92.30" waitingCount="2" stopTime="0.00" timeLoss="119.35" rerouteNo="1" devices="tripinfo_CalambatoNuvali_1.2 routing_CalambatoNuvali_1.2" vType="car" speedFactor="0.89" vaporized=""/>
    <personinfo id="pf_JollibeetoSTI_1.6" depart="540.00" type="ped" speedFactor="0.99" duration="269.10" waitingTime="0.00" timeLoss="26.63" traveltime="269.10">
        <walk depart="540.00" departPos="10.42" arrival="809.10" arrivalPos="19.02" duration="269.10" routeLength="335.01" timeLoss="26.63" maxSpeed="1.38" waitingTime="0.00"/>
    </personinfo>