<?xml version="1.0" encoding="UTF-8"?>

<!-- generated on 2026-02-22 21:27:31 by Eclipse SUMO sumo Version 1.24.0
<sumoConfiguration xmlns:xsi="http://www.w3.org/2001/XMLSchema-instance" xsi:noNamespaceSchemaLocation="http://sumo.dlr.de/xsd/sumoConfiguration.xsd">

    <input>
        <net-file value="Balibago_traci/network/balibago_baseline.net.xml"/>
        <route-files value="Balibago_traci/demand/flows_slow_traffic.rou.xml"/>
        <additional-files value="Balibago_traci/additionals/balibago.poly.xml,Balibago_traci/ additionals/balibago.add.xml"/>
    </input>

    <output>
        <tripinfo-output value="Balibago_traci/output_A2C/test_baseline_slow_traffic_trips.xml"/>
        <statistic-output value="Balibago_traci/output_A2C/test_baseline_slow_traffic_stats.xml"/>
    </output>

    <time>
        <begin value="0"/>
        <end value="10800"/>
        <step-length value="0.1"/>
    </time>

    <processing>
        <lateral-resolution value="0.1"/>
        <collision.action value="none"/>
        <collision.check-junctions value="false"/>
        <collision.mingap-factor value="0"/>
    </processing>

    <report>
        <no-warnings value="true"/>
    </report>

    <traci_server>
        <remote-port value="55828"/>
    </traci_server>

    <gui_only>
        <delay value="0"/>
    </gui_only>

</sumoConfiguration>
-->

<tripinfos xmlns:xsi="http://www.w3.org/2001/XMLSchema-instance" xsi:noNamespaceSchemaLocation="http://sumo.dlr.de/xsd/tripinfo_file.xsd">
    <tripinfo id="BalibagotoNuvali.0" depart="9.20" departLane="777619905_1" departPos="2.30" departPosLat="0.00" departSpeed="5.50" departDelay="0.00" arrival="75.90" arrivalLane="145507700#3_1" arrivalPos="783.31" arrivalPosLat="-0.00" arrivalSpeed="26.08" duration="66.70" routeLength="1315.67" waitingTime="0.00" waitingCount="0" stopTime="0.00" timeLoss="10.05" rerouteNo="1" devices="tripinfo_BalibagotoNuvali.0 routing_BalibagotoNuvali.0" vType="tricycle" speedFactor="0.94" vaporized=""/>
    <personinfo id="JollibeetoPalengke.0" depart="0.00" type="ped" speedFactor="1.06" duration="125.00" waitingTime="6.10" timeLoss="18.17" traveltime="125.00">
        <walk depart="0.00" departPos="10.42" arrival="125.00" arrivalPos="27.04" duration="125.00" routeLength="157.27" timeLoss="18.17" maxSpeed="1.47" waitingTime="6.10"/>
    </personinfo>
    <personinfo id="PalengketoJollibee.0" depart="0.00" type="ped" speedFactor="0.95" duration="138.10" waitingTime="0.00" timeLoss="13.55" traveltime="138.10">
        <walk depart="0.00" departPos="25.00" arrival="138.10" arrivalPos="5.21" duration="138.10" routeLength="164.52" timeLoss="13.55" maxSpeed="1.32" waitingTime="0.00"/>
    </personinfo>
    <personinfo id="PalengketoJollibee.1" depart="60.00" type="ped" speedFactor="1.01" duration="131.10" waitingTime="1.20" timeLoss="14.15" traveltime="131.10">
        <walk depart="60.00" departPos="25.00" arrival="191.10" arrivalPos="5.21" duration="131.10" routeLength="164.52" timeLoss="14.15" maxSpeed="1.41" waitingTime="1.20"/>
    </personinfo>
    <personinfo id="JollibeetoPalengke.1" depart="60.00" type="ped" speedFactor="0.94" duration="133.80" waitingTime="0.00" timeLoss="13.12" traveltime="133.80">
        <walk depart="60.00" departPos="10.42" arrival="193.80" arrivalPos="27.04" duration="133.80" routeLength="157.27" timeLoss="13.12" maxSpeed="1.30" waitingTime="0.00"/>
    </personinfo>
    <tripinfo id="BalibagotoBiñan.0" depart="37.20" departLane="145507698_1" departPos="2.30" departPosLat="0.00" departSpeed="9.75" departDelay="0.00" arrival="201.60" arrivalLane="-553887793#0_1" arrivalPos="201.31" arrivalPosLat="0.00" arrivalSpeed="29.83" duration="164.40" routeLength="1690.81" waitingTime="50.90" waitingCount="1" stopTime="0.00" timeLoss="79.94" rerouteNo="1" devices="tripinfo_BalibagotoBiñan.0 routing_BalibagotoBiñan.0" vType="tricycle" speedFactor="1.07" vaporized=""/>
    <tripinfo id="BiñantoBalibago.0" depart="90.20" departLane="553887793#0_1" departPos="12.10" departPosLat="0.00" departSpeed="27.78" departDelay="0.00" arrival="213.00" arrivalLane="-32083237#0_1" arrivalPos="36.46" arrivalPosLat="0.00" arrivalSpeed="11.22" duration="122.80" routeLength="992.33" waitingTime="53.70" waitingCount="1" stopTime="0.00" timeLoss="83.34" rerouteNo="1" devices="tripinfo_BiñantoBalibago.0 routing_BiñantoBalibago.0" vType="bus" speedFactor="1.00" vaporized=""/>
    <tripinfo id="CalambatoBalibago.0" depart="150.70" departLane="185930141#0_2" departPos="8.10" departPosLat="0.00" departSpeed="27.78" departDelay="0.00" arrival="213.80" arrivalLane="89908334_1" arrivalPos="36.84" arrivalPosLat="0.00" arrivalSpeed="8.87" duration="63.10" routeLength="908.17" waitingTime="0.00" waitingCount="0" stopTime="0.00" timeLoss="21.86" rerouteNo="1" devices="tripinfo_CalambatoBalibago.0 routing_CalambatoBalibago.0" vType="jeep" speedFactor="1.00" vaporized=""/>
    <tripinfo id="NuvalitoCalamba.0" depart="45.30" departLane="-145507700#3_1" departPos="7.20" departPosLat="0.00" departSpeed="28.04" departDelay="0.00" arrival="225.00" arrivalLane="-185930141#0_1" arrivalPos="428.88" arrivalPosLat="-0.00" arrivalSpeed="27.99" duration="179.70" routeLength="2319.66" waitingTime="54.40" waitingCount="1" stopTime="0.00" timeLoss="95.77" rerouteNo="1" devices="tripinfo_NuvalitoCalamba.0 routing_NuvalitoCalamba.0" vType="truck" speedFactor="1.01" vaporized=""/>
    <tripinfo id="BalibagotoCalamba.0" depart="80.90" departLane="145507698_1" departPos="7.55" departPosLat="0.00" departSpeed="0.00" departDelay="0.00" arrival="226.30" arrivalLane="-185930141#0_1" arrivalPos="428.88" arrivalPosLat="-0.00" arrivalSpeed="27.75" duration="145.40" routeLength="1523.59" waitingTime="11.30" waitingCount="1" stopTime="0.00" timeLoss="61.18" rerouteNo="1" devices="tripinfo_BalibagotoCalamba.0 routing_BalibagotoCalamba.0" vType="jeep" speedFactor="1.00" vaporized=""/>
    <tripinfo id="CalambatoNuvali.0" depart="49.20" departLane="185930141#0_2" departPos="5.10" departPosLat="0.00" departSpeed="32.61" departDelay="0.00" arrival="231.30" arrivalLane="145507700#3_1" arrivalPos="783.31" arrivalPosLat="-0.00" arrivalSpeed="32.54" duration="182.10" routeLength="2332.87" waitingTime="85.00" waitingCount="1" stopTime="0.00" timeLoss="109.26" rerouteNo="1" devices="tripinfo_CalambatoNuvali.0 routing_CalambatoNuvali.0" vType="car" speedFactor="1.17" vaporized=""/>
    <tripinfo id="BiñantoCalamba.0" depart="178.20" departLane="553887793#0_1" departPos="2.30" departPosLat="0.00" departSpeed="28.88" departDelay="0.00" arrival="240.90" arrivalLane="-185930141#0_1" arrivalPos="428.88" arrivalPosLat="0.00" arrivalSpeed="28.77" duration="62.70" routeLength="1510.47" waitingTime="3.30" waitingCount="1" stopTime="0.00" timeLoss="10.33" rerouteNo="1" devices="tripinfo_BiñantoCalamba.0 routing_BiñantoCalamba.0" vType="motorcycle" speedFactor="1.04" vaporized=""/>
    <personinfo id="JollibeetoPalengke.2" depart="120.00" type="ped" speedFactor="1.01" duration="124.40" waitingTime="0.00" timeLoss="12.33" traveltime="124.40">
        <walk depart="120.00" departPos="10.42" arrival="244.40" arrivalPos="27.04" duration="124.40" routeLength="157.27" timeLoss="12.33" maxSpeed="1.40" waitingTime="0.00"/>
    </personinfo>
    <personinfo id="JollibeetoSTI.0" depart="0.00" type="ped" speedFactor="1.08" duration="249.20" waitingTime="0.80" timeLoss="26.37" traveltime="249.20">
        <walk depart="0.00" departPos="10.42" arrival="249.20" arrivalPos="19.02" duration="249.20" routeLength="335.01" timeLoss="26.37" maxSpeed="1.50" waitingTime="0.80"/>
    </personinfo>
    <personinfo id="PalengketoJollibee.2" depart="120.00" type="ped" speedFactor="0.97" duration="135.80" waitingTime="0.00" timeLoss="13.67" traveltime="135.80">
        <walk depart="120.00" departPos="25.00" arrival="255.80" arrivalPos="5.21" duration="135.80" routeLength="164.52" timeLoss="13.67" maxSpeed="1.35" waitingTime="0.00"/>
    </personinfo>
    <tripinfo id="BalibagotoStaRosa.0" depart="55.40" departLane="145507698_1" departPos="7.55" departPosLat="0.00" departSpeed="0.00" departDelay="0.00" arrival="273.40" arrivalLane="-92878383#0_1" arrivalPos="603.68" arrivalPosLat="0.00" arrivalSpeed="8.32" duration="218.00" routeLength="1986.48" waitingTime="0.00" waitingCount="0" stopTime="0.00" timeLoss="28.78" rerouteNo="1" devices="tripinfo_BalibagotoStaRosa.0 routing_BalibagotoStaRosa.0" vType="bus" speedFactor="1.00" vaporized=""/>
    <personinfo id="PalengketoSTI.0" depart="0.00" type="ped" speedFactor="1.07" duration="278.10" waitingTime="0.60" timeLoss="29.75" traveltime="278.10">
        <walk depart="0.00" departPos="25.00" arrival="278.10" arrivalPos="19.02" duration="278.10" routeLength="369.14" timeLoss="29.75" maxSpeed="1.49" waitingTime="0.60"/>
    </personinfo>
    <tripinfo id="NuvalitoStaRosa.0" depart="111.10" departLane="-145507700#3_1" departPos="2.30" departPosLat="0.00" departSpeed="31.39" departDelay="0.00" arrival="285.30" arrivalLane="-92878383#0_1" arrivalPos="603.68" arrivalPosLat="-0.00" arrivalSpeed="9.35" duration="174.20" routeLength="2602.84" waitingTime="0.00" waitingCount="0" stopTime="0.00" timeLoss="10.79" rerouteNo="1" devices="tripinfo_NuvalitoStaRosa.0 routing_NuvalitoStaRosa.0" vType="tricycle" speedFactor="1.13" vaporized=""/>
    <personinfo id="STItoSakayan.0" depart="0.00" type="ped" speedFactor="1.03" duration="290.20" waitingTime="0.00" timeLoss="29.00" traveltime="290.20">
        <walk depart="0.00" departPos="25.00" arrival="290.20" arrivalPos="27.04" duration="290.20" routeLength="373.08" timeLoss="29.00" maxSpeed="1.43" waitingTime="0.00"/>
    </personinfo>
    <personinfo id="JollibeetoPalengke.3" depart="180.00" type="ped" speedFactor="1.08" duration="116.40" waitingTime="0.00" timeLoss="11.81" traveltime="116.40">
        <walk depart="180.00" departPos="10.42" arrival="296.40" arrivalPos="27.04" duration="116.40" routeLength="157.27" timeLoss="11.81" maxSpeed="1.50" waitingTime="0.00"/>
    </personinfo>
    <personinfo id="JollibeetoSTI.1" depart="60.00" type="ped" speedFactor="1.12" duration="246.00" waitingTime="3.10" timeLoss="30.50" traveltime="246.00">
        <walk depart="60.00" departPos="10.42" arrival="306.00" arrivalPos="19.02" duration="246.00" routeLength="335.01" timeLoss="30.50" maxSpeed="1.55" waitingTime="3.10"/>
    </personinfo>
    <personinfo id="PalengketoJollibee.3" depart="180.00" type="ped" speedFactor="0.99" duration="132.80" waitingTime="0.00" timeLoss="13.11" traveltime="132.80">
        <walk depart="180.00" departPos="25.00" arrival="312.80" arrivalPos="5.21" duration="132.80" routeLength="164.52" timeLoss="13.11" maxSpeed="1.37" waitingTime="0.00"/>
    </personinfo>
    <tripinfo id="BalibagotoBiñan.1" depart="185.50" departLane="145507698_1" departPos="7.55" departPosLat="0.00" departSpeed="0.00" departDelay="0.00" arrival="313.40" arrivalLane="-553887793#0_2" arrivalPos="201.31" arrivalPosLat="0.00" arrivalSpeed="27.77" duration="127.90" routeLength="1682.41" waitingTime="0.00" waitingCount="0" stopTime="0.00" timeLoss="37.71" rerouteNo="1" devices="tripinfo_BalibagotoBiñan.1 routing_BalibagotoBiñan.1" vType="jeep" speedFactor="1.00" vaporized=""/>
    <tripinfo id="CalambatoBalibago.1" depart="194.30" departLane="185930141#0_2" departPos="8.10" departPosLat="0.00" departSpeed="27.78" departDelay="0.00" arrival="322.10" arrivalLane="89908334_1" arrivalPos="36.84" arrivalPosLat="0.00" arrivalSpeed="9.07" duration="127.80" routeLength="908.17" waitingTime="57.40" waitingCount="1" stopTime="0.00" timeLoss="86.54" rerouteNo="1" devices="tripinfo_CalambatoBalibago.1 routing_CalambatoBalibago.1" vType="jeep" speedFactor="1.00" vaporized=""/>
    <tripinfo id="CalambatoBalibago.2" depart="238.20" departLane="185930141#0_2" departPos="8.10" departPosLat="0.00" departSpeed="27.78" departDelay="0.00" arrival="326.10" arrivalLane="89908334_1" arrivalPos="36.84" arrivalPosLat="0.00" arrivalSpeed="8.92" duration="87.90" routeLength="908.17" waitingTime="10.00" waitingCount="1" stopTime="0.00" timeLoss="46.66" rerouteNo="1" devices="tripinfo_CalambatoBalibago.2 routing_CalambatoBalibago.2" vType="jeep" speedFactor="1.00" vaporized=""/>
    <tripinfo id="StaRosatoBiñan.0" depart="38.20" departLane="92878383#0_1" departPos="2.30" departPosLat="0.00" departSpeed="8.55" departDelay="0.00" arrival="326.50" arrivalLane="-553887793#0_1" arrivalPos="201.31" arrivalPosLat="-0.00" arrivalSpeed="28.32" duration="288.30" routeLength="1610.52" waitingTime="145.90" waitingCount="1" stopTime="0.00" timeLoss="150.99" rerouteNo="1" devices="tripinfo_StaRosatoBiñan.0 routing_StaRosatoBiñan.0" vType="motorcycle" speedFactor="1.03" vaporized=""/>
    <tripinfo id="CalambatoBalibago.3" depart="267.10" departLane="185930141#0_2" departPos="8.10" departPosLat="0.00" departSpeed="27.78" departDelay="0.00" arrival="330.60" arrivalLane="89908334_1" arrivalPos="36.84" arrivalPosLat="0.00" arrivalSpeed="8.85" duration="63.50" routeLength="908.17" waitingTime="0.00" waitingCount="0" stopTime="0.00" timeLoss="22.30" rerouteNo="1" devices="tripinfo_CalambatoBalibago.3 routing_CalambatoBalibago.3" vType="jeep" speedFactor="1.00" vaporized=""/>
    <tripinfo id="StaRosatoBalibago.0" depart="5.30" departLane="92878383#0_1" departPos="2.30" departPosLat="0.00" departSpeed="9.27" departDelay="0.00" arrival="337.30" arrivalLane="-32083237#0_1" arrivalPos="36.46" arrivalPosLat="0.00" arrivalSpeed="15.17" duration="332.00" routeLength="1364.26" waitingTime="190.00" waitingCount="2" stopTime="0.00" timeLoss="211.52" rerouteNo="1" devices="tripinfo_StaRosatoBalibago.0 routing_StaRosatoBalibago.0" vType="tricycle" speedFactor="1.11" vaporized=""/>
    <personinfo id="STItoSakayan.1" depart="60.00" type="ped" speedFactor="1.04" duration="285.70" waitingTime="0.00" timeLoss="28.35" traveltime="285.70">
        <walk depart="60.00" departPos="25.00" arrival="345.70" arrivalPos="27.04" duration="285.70" routeLength="373.08" timeLoss="28.35" maxSpeed="1.45" waitingTime="0.00"/>
    </personinfo>
    <tripinfo id="StaRosatoCalamba.0" depart="77.50" departLane="92878383#0_1" departPos="8.10" departPosLat="0.00" departSpeed="8.33" departDelay="0.00" arrival="352.70" arrivalLane="-185930141#0_1" arrivalPos="428.88" arrivalPosLat="-0.00" arrivalSpeed="27.74" duration="275.20" routeLength="1852.46" waitingTime="103.00" waitingCount="1" stopTime="0.00" timeLoss="125.85" rerouteNo="1" devices="tripinfo_StaRosatoCalamba.0 routing_StaRosatoCalamba.0" vType="jeep" speedFactor="1.00" vaporized=""/>
    <tripinfo id="StaRosatoCalamba.1" depart="93.90" departLane="92878383#0_1" departPos="5.10" departPosLat="0.00" departSpeed="8.52" departDelay="0.00" arrival="353.70" arrivalLane="-185930141#0_2" arrivalPos="428.88" arrivalPosLat="0.00" arrivalSpeed="28.33" duration="259.80" routeLength="1855.46" waitingTime="90.10" waitingCount="1" stopTime="0.00" timeLoss="113.45" rerouteNo="1" devices="tripinfo_StaRosatoCalamba.1 routing_StaRosatoCalamba.1" vType="car" speedFactor="1.02" vaporized=""/>
    <tripinfo id="StaRosatoCalamba.2" depart="94.80" departLane="92878383#0_1" departPos="5.10" departPosLat="0.00" departSpeed="4.99" departDelay="0.10" arrival="355.30" arrivalLane="-185930141#0_1" arrivalPos="428.88" arrivalPosLat="-0.00" arrivalSpeed="24.72" duration="260.50" routeLength="1855.46" waitingTime="73.90" waitingCount="1" stopTime="0.00" timeLoss="92.75" rerouteNo="1" devices="tripinfo_StaRosatoCalamba.2 routing_StaRosatoCalamba.2" vType="car" speedFactor="0.89" vaporized=""/>
    <tripinfo id="BiñantoStaRosa.0" depart="24.20" departLane="553887793#0_1" departPos="2.30" departPosLat="0.00" departSpeed="25.64" departDelay="0.00" arrival="356.40" arrivalLane="-92878383#0_1" arrivalPos="603.68" arrivalPosLat="-0.00" arrivalSpeed="7.62" duration="332.20" routeLength="1788.75" waitingTime="155.30" waitingCount="1" stopTime="0.00" timeLoss="164.98" rerouteNo="1" devices="tripinfo_BiñantoStaRosa.0 routing_BiñantoStaRosa.0" vType="tricycle" speedFactor="0.92" vaporized=""/>
    <tripinfo id="StaRosatoBalibago.1" depart="141.60" departLane="92878383#0_1" departPos="8.10" departPosLat="0.00" departSpeed="8.33" departDelay="0.00" arrival="357.90" arrivalLane="-32083237#0_1" arrivalPos="36.46" arrivalPosLat="0.00" arrivalSpeed="11.23" duration="216.30" routeLength="1358.46" waitingTime="39.50" waitingCount="2" stopTime="0.00" timeLoss="82.94" rerouteNo="1" devices="tripinfo_StaRosatoBalibago.1 routing_StaRosatoBalibago.1" vType="jeep" speedFactor="1.00" vaporized=""/>
    <personinfo id="JollibeetoPalengke.4" depart="240.00" type="ped" speedFactor="1.03" duration="122.00" waitingTime="0.00" timeLoss="12.09" traveltime="122.00">
        <walk depart="240.00" departPos="10.42" arrival="362.00" arrivalPos="27.04" duration="122.00" routeLength="157.27" timeLoss="12.09" maxSpeed="1.43" waitingTime="0.00"/>
    </personinfo>
    <personinfo id="PalengketoJollibee.4" depart="240.00" type="ped" speedFactor="1.02" duration="128.40" waitingTime="0.00" timeLoss="12.72" traveltime="128.40">
        <walk depart="240.00" departPos="25.00" arrival="368.40" arrivalPos="5.21" duration="128.40" routeLength="164.52" timeLoss="12.72" maxSpeed="1.42" waitingTime="0.00"/>
    </personinfo>
    <tripinfo id="NuvalitoBiñan.0" depart="271.60" departLane="-145507700#3_1" departPos="2.30" departPosLat="0.00" departSpeed="29.49" departDelay="0.00" arrival="376.00" arrivalLane="-553887793#0_2" arrivalPos="201.31" arrivalPosLat="0.00" arrivalSpeed="29.48" duration="104.40" routeLength="2096.19" waitingTime="25.90" waitingCount="1" stopTime="0.00" timeLoss="32.10" rerouteNo="1" devices="tripinfo_NuvalitoBiñan.0 routing_NuvalitoBiñan.0" vType="motorcycle" speedFactor="1.06" vaporized=""/>
    <tripinfo id="StaRosatoCalamba.3" depart="216.90" departLane="92878383#0_1" departPos="5.10" departPosLat="0.00" departSpeed="8.19" departDelay="0.00" arrival="377.40" arrivalLane="-185930141#0_2" arrivalPos="428.88" arrivalPosLat="0.00" arrivalSpeed="27.23" duration="160.50" routeLength="1855.46" waitingTime="0.00" waitingCount="0" stopTime="0.00" timeLoss="8.16" rerouteNo="1" devices="tripinfo_StaRosatoCalamba.3 routing_StaRosatoCalamba.3" vType="car" speedFactor="0.98" vaporized=""/>
    <personinfo id="PalengketoSTI.1" depart="60.00" type="ped" speedFactor="0.94" duration="317.70" waitingTime="2.50" timeLoss="34.11" traveltime="317.70">
        <walk depart="60.00" departPos="25.00" arrival="377.70" arrivalPos="19.02" duration="317.70" routeLength="369.14" timeLoss="34.11" maxSpeed="1.30" waitingTime="2.50"/>
    </personinfo>
    <personinfo id="JollibeetoSTI.2" depart="120.00" type="ped" speedFactor="1.02" duration="266.00" waitingTime="2.20" timeLoss="28.54" traveltime="266.00">
        <walk depart="120.00" departPos="10.42" arrival="386.00" arrivalPos="19.02" duration="266.00" routeLength="335.01" timeLoss="28.54" maxSpeed="1.41" waitingTime="2.20"/>
    </personinfo>
    <tripinfo id="StaRosatoBalibago.2" depart="224.80" departLane="92878383#0_1" departPos="8.10" departPosLat="0.00" departSpeed="8.33" departDelay="0.00" arrival="391.30" arrivalLane="-32083237#0_1" arrivalPos="36.46" arrivalPosLat="0.00" arrivalSpeed="11.23" duration="166.50" routeLength="1358.46" waitingTime="4.70" waitingCount="2" stopTime="0.00" timeLoss="33.11" rerouteNo="1" devices="tripinfo_StaRosatoBalibago.2 routing_StaRosatoBalibago.2" vType="jeep" speedFactor="1.00" vaporized=""/>
    <personinfo id="STItoSakayan.2" depart="120.00" type="ped" speedFactor="1.08" duration="278.10" waitingTime="1.60" timeLoss="29.40" traveltime="278.10">
        <walk depart="120.00" departPos="25.00" arrival="398.10" arrivalPos="27.04" duration="278.10" routeLength="373.08" timeLoss="29.40" maxSpeed="1.50" waitingTime="1.60"/>
    </personinfo>
    <personinfo id="PalengketoTarget.0" depart="0.00" type="ped" speedFactor="1.19" duration="398.60" waitingTime="1.20" timeLoss="41.29" traveltime="398.60">
        <walk depart="0.00" departPos="25.00" arrival="398.60" arrivalPos="16.04" duration="398.60" routeLength="589.17" timeLoss="41.29" maxSpeed="1.65" waitingTime="1.20"/>
    </personinfo>
    <tripinfo id="StaRosatoNuvali.0" depart="193.30" departLane="92878383#0_1" departPos="7.20" departPosLat="0.00" departSpeed="8.98" departDelay="0.00" arrival="399.10" arrivalLane="145507700#3_1" arrivalPos="783.31" arrivalPosLat="0.00" arrivalSpeed="29.93" duration="205.80" routeLength="2443.76" waitingTime="8.50" waitingCount="2" stopTime="0.00" timeLoss="48.13" rerouteNo="1" devices="tripinfo_StaRosatoNuvali.0 routing_StaRosatoNuvali.0" vType="truck" speedFactor="1.08" vaporized=""/>
    <personinfo id="TargettoSakayan.0" depart="0.00" type="ped" speedFactor="1.17" duration="407.70" waitingTime="0.10" timeLoss="40.84" traveltime="407.70">
        <walk depart="0.00" departPos="25.00" arrival="407.70" arrivalPos="27.04" duration="407.70" routeLength="596.09" timeLoss="40.84" maxSpeed="1.62" waitingTime="0.10"/>
    </personinfo>
    <tripinfo id="BalibagotoNuvali.1" depart="337.00" departLane="777619905_1" departPos="5.10" departPosLat="0.00" departSpeed="0.00" departDelay="0.00" arrival="413.60" arrivalLane="145507700#3_1" arrivalPos="783.31" arrivalPosLat="-0.00" arrivalSpeed="27.74" duration="76.60" routeLength="1312.87" waitingTime="0.00" waitingCount="0" stopTime="0.00" timeLoss="23.50" rerouteNo="1" devices="tripinfo_BalibagotoNuvali.1 routing_BalibagotoNuvali.1" vType="jeep" speedFactor="1.00" vaporized=""/>
    <tripinfo id="BiñantoStaRosa.1" depart="250.00" departLane="553887793#0_2" departPos="5.10" departPosLat="0.00" departSpeed="30.21" departDelay="0.00" arrival="414.30" arrivalLane="-92878383#0_1" arrivalPos="603.68" arrivalPosLat="-0.00" arrivalSpeed="8.95" duration="164.30" routeLength="1785.95" waitingTime="16.20" waitingCount="1" stopTime="0.00" timeLoss="22.43" rerouteNo="1" devices="tripinfo_BiñantoStaRosa.1 routing_BiñantoStaRosa.1" vType="car" speedFactor="1.09" vaporized=""/>
    <personinfo id="PalengketoSTI.2" depart="120.00" type="ped" speedFactor="0.98" duration="304.60" waitingTime="2.90" timeLoss="33.59" traveltime="304.60">
        <walk depart="120.00" departPos="25.00" arrival="424.60" arrivalPos="19.02" duration="304.60" routeLength="369.14" timeLoss="33.59" maxSpeed="1.36" waitingTime="2.90"/>
    </personinfo>
    <personinfo id="PalengketoJollibee.5" depart="300.00" type="ped" speedFactor="1.01" duration="130.20" waitingTime="0.00" timeLoss="13.00" traveltime="130.20">
        <walk depart="300.00" departPos="25.00" arrival="430.20" arrivalPos="5.21" duration="130.20" routeLength="164.52" timeLoss="13.00" maxSpeed="1.40" waitingTime="0.00"/>
    </personinfo>
    <tripinfo id="BalibagotoStaRosa.1" depart="214.70" departLane="145507698_1" departPos="7.55" departPosLat="0.00" departSpeed="0.00" departDelay="0.00" arrival="440.10" arrivalLane="-92878383#0_1" arrivalPos="603.68" arrivalPosLat="-0.00" arrivalSpeed="8.32" duration="225.40" routeLength="1983.33" waitingTime="0.20" waitingCount="1" stopTime="0.00" timeLoss="36.61" rerouteNo="1" devices="tripinfo_BalibagotoStaRosa.1 routing_BalibagotoStaRosa.1" vType="jeep" speedFactor="1.00" vaporized=""/>
    <tripinfo id="CalambatoStaRosa.0" depart="289.50" departLane="185930141#0_1" departPos="7.20" departPosLat="0.00" departSpeed="28.24" departDelay="0.00" arrival="445.30" arrivalLane="-92878383#0_1" arrivalPos="603.68" arrivalPosLat="0.00" arrivalSpeed="8.44" duration="155.80" routeLength="1806.49" waitingTime="0.00" waitingCount="0" stopTime="0.00" timeLoss="5.46" rerouteNo="1" devices="tripinfo_CalambatoStaRosa.0 routing_CalambatoStaRosa.0" vType="truck" speedFactor="1.02" vaporized=""/>
    <tripinfo id="CalambatoBalibago.4" depart="368.10" departLane="185930141#0_2" departPos="8.10" departPosLat="0.00" departSpeed="27.78" departDelay="0.00" arrival="449.70" arrivalLane="89908334_1" arrivalPos="36.84" arrivalPosLat="0.00" arrivalSpeed="8.43" duration="81.60" routeLength="908.17" waitingTime="4.40" waitingCount="1" stopTime="0.00" timeLoss="40.35" rerouteNo="1" devices="tripinfo_CalambatoBalibago.4 routing_CalambatoBalibago.4" vType="jeep" speedFactor="1.00" vaporized=""/>
    <tripinfo id="CalambatoBalibago.5" depart="395.50" departLane="185930141#0_2" departPos="2.30" departPosLat="0.00" departSpeed="32.04" departDelay="0.00" arrival="451.60" arrivalLane="89908334_1" arrivalPos="36.84" arrivalPosLat="0.00" arrivalSpeed="11.13" duration="56.10" routeLength="913.97" waitingTime="0.00" waitingCount="0" stopTime="0.00" timeLoss="20.18" rerouteNo="1" devices="tripinfo_CalambatoBalibago.5 routing_CalambatoBalibago.5" vType="tricycle" speedFactor="1.15" vaporized=""/>
    <personinfo id="JollibeetoPalengke.5" depart="300.00" type="ped" speedFactor="0.83" duration="152.00" waitingTime="0.70" timeLoss="15.73" traveltime="152.00">
        <walk depart="300.00" departPos="10.42" arrival="452.00" arrivalPos="27.04" duration="152.00" routeLength="157.27" timeLoss="15.73" maxSpeed="1.15" waitingTime="0.70"/>
    </personinfo>
    <personinfo id="JollibeetoSTI.3" depart="180.00" type="ped" speedFactor="0.99" duration="272.80" waitingTime="0.90" timeLoss="28.41" traveltime="272.80">
        <walk depart="180.00" departPos="10.42" arrival="452.80" arrivalPos="19.02" duration="272.80" routeLength="335.01" timeLoss="28.41" maxSpeed="1.37" waitingTime="0.90"/>
    </personinfo>
    <personinfo id="JollibeetoTarget.1" depart="60.00" type="ped" speedFactor="1.10" duration="406.00" waitingTime="1.40" timeLoss="43.75" traveltime="406.00">
        <walk depart="60.00" departPos="10.42" arrival="466.00" arrivalPos="16.04" duration="406.00" routeLength="555.05" timeLoss="43.75" maxSpeed="1.53" waitingTime="1.40"/>
    </personinfo>
    <personinfo id="PalengketoSTI.3" depart="180.00" type="ped" speedFactor="1.04" duration="286.90" waitingTime="1.40" timeLoss="32.03" traveltime="286.90">
        <walk depart="180.00" departPos="25.00" arrival="466.90" arrivalPos="19.02" duration="286.90" routeLength="369.14" timeLoss="32.03" maxSpeed="1.45" waitingTime="1.40"/>
    </personinfo>
    <tripinfo id="NuvalitoCalamba.1" depart="121.00" departLane="-145507700#3_1" departPos="8.10" departPosLat="0.00" departSpeed="27.78" departDelay="0.00" arrival="467.00" arrivalLane="-185930141#0_2" arrivalPos="428.88" arrivalPosLat="0.00" arrivalSpeed="27.74" duration="346.00" routeLength="2318.76" waitingTime="212.90" waitingCount="2" stopTime="0.00" timeLoss="261.28" rerouteNo="1" devices="tripinfo_NuvalitoCalamba.1 routing_NuvalitoCalamba.1" vType="jeep" speedFactor="1.00" vaporized=""/>
    <tripinfo id="NuvalitoCalamba.2" depart="205.50" departLane="-145507700#3_1" departPos="12.10" departPosLat="0.00" departSpeed="27.78" departDelay="0.00" arrival="467.00" arrivalLane="-185930141#0_1" arrivalPos="428.88" arrivalPosLat="-0.00" arrivalSpeed="27.78" duration="261.50" routeLength="2314.76" waitingTime="115.10" waitingCount="3" stopTime="0.00" timeLoss="176.94" rerouteNo="1" devices="tripinfo_NuvalitoCalamba.2 routing_NuvalitoCalamba.2" vType="bus" speedFactor="1.00" vaporized=""/>
    <personinfo id="JollibeetoTarget.0" depart="0.00" type="ped" speedFactor="0.94" duration="473.20" waitingTime="1.30" timeLoss="48.74" traveltime="473.20">
        <walk depart="0.00" departPos="10.42" arrival="473.20" arrivalPos="16.04" duration="473.20" routeLength="555.05" timeLoss="48.74" maxSpeed="1.31" waitingTime="1.30"/>
    </personinfo>
    <personinfo id="STItoSakayan.3" depart="180.00" type="ped" speedFactor="0.99" duration="300.80" waitingTime="0.00" timeLoss="30.26" traveltime="300.80">
        <walk depart="180.00" departPos="25.00" arrival="480.80" arrivalPos="27.04" duration="300.80" routeLength="373.08" timeLoss="30.26" maxSpeed="1.38" waitingTime="0.00"/>
    </personinfo>
    <personinfo id="JollibeetoPalengke.6" depart="360.00" type="ped" speedFactor="1.05" duration="121.20" waitingTime="0.00" timeLoss="12.92" traveltime="121.20">
        <walk depart="360.00" departPos="10.42" arrival="481.20" arrivalPos="27.04" duration="121.20" routeLength="157.27" timeLoss="12.92" maxSpeed="1.45" waitingTime="0.00"/>
    </personinfo>
    <personinfo id="TargettoSakayan.1" depart="60.00" type="ped" speedFactor="1.12" duration="427.00" waitingTime="1.10" timeLoss="44.00" traveltime="427.00">
        <walk depart="60.00" departPos="25.00" arrival="487.00" arrivalPos="27.04" duration="427.00" routeLength="596.09" timeLoss="44.00" maxSpeed="1.56" waitingTime="1.10"/>
    </personinfo>
    <personinfo id="PalengketoJollibee.6" depart="360.00" type="ped" speedFactor="0.97" duration="136.50" waitingTime="1.60" timeLoss="14.71" traveltime="136.50">
        <walk depart="360.00" departPos="25.00" arrival="496.50" arrivalPos="5.21" duration="136.50" routeLength="164.52" timeLoss="14.71" maxSpeed="1.35" waitingTime="1.60"/>
    </personinfo>
    <tripinfo id="NuvalitoBiñan.1" depart="405.00" departLane="-145507700#3_1" departPos="2.30" departPosLat="0.00" departSpeed="30.04" departDelay="0.00" arrival="496.70" arrivalLane="-553887793#0_2" arrivalPos="201.31" arrivalPosLat="0.00" arrivalSpeed="30.01" duration="91.70" routeLength="2096.19" waitingTime="1.70" waitingCount="2" stopTime="0.00" timeLoss="20.71" rerouteNo="1" devices="tripinfo_NuvalitoBiñan.1 routing_NuvalitoBiñan.1" vType="tricycle" speedFactor="1.08" vaporized=""/>
    <tripinfo id="NuvalitoStaRosa.1" depart="128.70" departLane="-145507700#3_2" departPos="5.10" departPosLat="0.00" departSpeed="26.83" departDelay="0.00" arrival="501.00" arrivalLane="-92878383#0_1" arrivalPos="603.68" arrivalPosLat="-0.00" arrivalSpeed="7.97" duration="372.30" routeLength="2600.04" waitingTime="152.00" waitingCount="2" stopTime="0.00" timeLoss="181.08" rerouteNo="1" devices="tripinfo_NuvalitoStaRosa.1 routing_NuvalitoStaRosa.1" vType="car" speedFactor="0.97" vaporized=""/>