<?xml version="1.0" encoding="UTF-8"?>

<!-- generated on 2026-02-22 16:34:39 by Eclipse SUMO sumo Version 1.24.0
<sumoConfiguration xmlns:xsi="http://www.w3.org/2001/XMLSchema-instance" xsi:noNamespaceSchemaLocation="http://sumo.dlr.de/xsd/sumoConfiguration.xsd">

    <input>
        <net-file value="Balibago_traci/network/balibago_signalized.net.xml"/>
        <route-files value="Balibago_traci/demand/flows_normal_traffic.rou.xml"/>
        <additional-files value="Balibago_traci/additionals/balibago.poly.xml,Balibago_traci/ additionals/balibago.add.xml"/>
    </input>

    <output>
        <tripinfo-output value="Balibago_traci/output_A2C/test_normal_trips.xml"/>
        <statistic-output value="Balibago_traci/output_A2C/test_normal_stats.xml"/>
    </output>

    <time>
        <begin value="0"/>
        <end value="10800"/>
        <step-length value="0.1"/>
    </time>

    <processing>
        <lateral-resolution value="0.1"/>
        <collision.action value="none"/>
        <collision.check-junctions value="false"/>
        <collision.mingap-factor value="0"/>
    </processing>

    <report>
        <no-warnings value="true"/>
    </report>

    <traci_server>
        <remote-port value="61812"/>
    </traci_server>

    <gui_only>
        <delay value="0"/>
    </gui_only>

</sumoConfiguration>
-->

<tripinfos xmlns:xsi="http://www.w3.org/2001/XMLSchema-instance" xsi:noNamespaceSchemaLocation="http://sumo.dlr.de/xsd/tripinfo_file.xsd">
    <tripinfo id="BalibagotoNuvali.0" depart="9.20" departLane="777619905_1" departPos="5.10" departPosLat="0.00" departSpeed="0.00" departDelay="0.00" arrival="85.70" arrivalLane="145507700#3_1" arrivalPos="783.31" arrivalPosLat="-0.00" arrivalSpeed="27.75" duration="76.50" routeLength="1312.87" waitingTime="0.00" waitingCount="0" stopTime="0.00" timeLoss="23.38" rerouteNo="1" devices="tripinfo_BalibagotoNuvali.0 routing_BalibagotoNuvali.0" vType="bus" speedFactor="1.00" vaporized=""/>
    <personinfo id="JollibeetoPalengke.0" depart="0.00" type="ped" speedFactor="1.06" duration="118.50" waitingTime="0.00" timeLoss="11.67" traveltime="118.50">
        <walk depart="0.00" departPos="10.42" arrival="118.50" arrivalPos="27.04" duration="118.50" routeLength="157.27" timeLoss="11.67" maxSpeed="1.47" waitingTime="0.00"/>
    </personinfo>
    <personinfo id="PalengketoJollibee.0" depart="0.00" type="ped" speedFactor="0.94" duration="139.70" waitingTime="0.00" timeLoss="13.88" traveltime="139.70">
        <walk depart="0.00" departPos="25.00" arrival="139.70" arrivalPos="5.21" duration="139.70" routeLength="164.52" timeLoss="13.88" maxSpeed="1.31" waitingTime="0.00"/>
    </personinfo>
    <tripinfo id="BiñantoBalibago.0" depart="90.20" departLane="553887793#0_1" departPos="12.10" departPosLat="0.00" departSpeed="27.78" departDelay="0.00" arrival="152.90" arrivalLane="-32083237#0_1" arrivalPos="36.46" arrivalPosLat="0.00" arrivalSpeed="11.27" duration="62.70" routeLength="992.33" waitingTime="0.00" waitingCount="0" stopTime="0.00" timeLoss="23.26" rerouteNo="1" devices="tripinfo_BiñantoBalibago.0 routing_BiñantoBalibago.0" vType="bus" speedFactor="1.00" vaporized=""/>
    <personinfo id="JollibeetoSTI.0" depart="0.00" type="ped" speedFactor="1.18" duration="228.10" waitingTime="0.80" timeLoss="23.44" traveltime="228.10">
        <walk depart="0.00" departPos="10.42" arrival="228.10" arrivalPos="19.02" duration="228.10" routeLength="335.01" timeLoss="23.44" maxSpeed="1.64" waitingTime="0.80"/>
    </personinfo>
    <personinfo id="PalengketoJollibee.1" depart="120.00" type="ped" speedFactor="1.10" duration="119.40" waitingTime="0.00" timeLoss="12.02" traveltime="119.40">
        <walk depart="120.00" departPos="25.00" arrival="239.40" arrivalPos="5.21" duration="119.40" routeLength="164.52" timeLoss="12.02" maxSpeed="1.53" waitingTime="0.00"/>
    </personinfo>
    <tripinfo id="CalambatoNuvali.0" depart="49.20" departLane="185930141#0_2" departPos="7.20" departPosLat="0.00" departSpeed="28.45" departDelay="0.00" arrival="246.10" arrivalLane="145507700#3_1" arrivalPos="783.31" arrivalPosLat="-0.00" arrivalSpeed="28.42" duration="196.90" routeLength="2330.77" waitingTime="79.70" waitingCount="1" stopTime="0.00" timeLoss="113.40" rerouteNo="1" devices="tripinfo_CalambatoNuvali.0 routing_CalambatoNuvali.0" vType="truck" speedFactor="1.02" vaporized=""/>
    <personinfo id="JollibeetoPalengke.1" depart="120.00" type="ped" speedFactor="0.94" duration="133.30" waitingTime="0.00" timeLoss="12.62" traveltime="133.30">
        <walk depart="120.00" departPos="10.42" arrival="253.30" arrivalPos="27.04" duration="133.30" routeLength="157.27" timeLoss="12.62" maxSpeed="1.30" waitingTime="0.00"/>
    </personinfo>
    <tripinfo id="CalambatoBalibago.0" depart="194.30" departLane="185930141#0_2" departPos="2.30" departPosLat="0.00" departSpeed="24.40" departDelay="0.00" arrival="256.30" arrivalLane="89908334_1" arrivalPos="36.84" arrivalPosLat="0.00" arrivalSpeed="11.18" duration="62.00" routeLength="913.97" waitingTime="0.00" waitingCount="0" stopTime="0.00" timeLoss="14.82" rerouteNo="1" devices="tripinfo_CalambatoBalibago.0 routing_CalambatoBalibago.0" vType="tricycle" speedFactor="0.88" vaporized=""/>
    <personinfo id="PalengketoSTI.0" depart="0.00" type="ped" speedFactor="0.96" duration="308.10" waitingTime="1.00" timeLoss="32.11" traveltime="308.10">
        <walk depart="0.00" departPos="25.00" arrival="308.10" arrivalPos="19.02" duration="308.10" routeLength="369.14" timeLoss="32.11" maxSpeed="1.34" waitingTime="1.00"/>
    </personinfo>
    <personinfo id="STItoSakayan.0" depart="0.00" type="ped" speedFactor="0.95" duration="312.90" waitingTime="0.00" timeLoss="30.47" traveltime="312.90">
        <walk depart="0.00" departPos="25.00" arrival="312.90" arrivalPos="27.04" duration="312.90" routeLength="373.08" timeLoss="30.47" maxSpeed="1.32" waitingTime="0.00"/>
    </personinfo>
    <tripinfo id="BiñantoStaRosa.0" depart="24.20" departLane="553887793#0_2" departPos="5.10" departPosLat="0.00" departSpeed="26.79" departDelay="0.00" arrival="349.70" arrivalLane="-92878383#0_1" arrivalPos="603.68" arrivalPosLat="-0.00" arrivalSpeed="7.99" duration="325.50" routeLength="1785.95" waitingTime="154.80" waitingCount="1" stopTime="0.00" timeLoss="165.59" rerouteNo="1" devices="tripinfo_BiñantoStaRosa.0 routing_BiñantoStaRosa.0" vType="car" speedFactor="0.96" vaporized=""/>
    <personinfo id="JollibeetoSTI.1" depart="120.00" type="ped" speedFactor="1.15" duration="233.40" waitingTime="1.00" timeLoss="24.45" traveltime="233.40">
        <walk depart="120.00" departPos="10.42" arrival="353.40" arrivalPos="19.02" duration="233.40" routeLength="335.01" timeLoss="24.45" maxSpeed="1.60" waitingTime="1.00"/>
    </personinfo>
    <tripinfo id="StaRosatoBalibago.0" depart="141.60" departLane="92878383#0_1" departPos="12.10" departPosLat="0.00" departSpeed="8.33" departDelay="0.00" arrival="358.80" arrivalLane="-32083237#0_1" arrivalPos="36.46" arrivalPosLat="0.00" arrivalSpeed="11.25" duration="217.20" routeLength="1354.46" waitingTime="43.60" waitingCount="4" stopTime="0.00" timeLoss="84.30" rerouteNo="1" devices="tripinfo_StaRosatoBalibago.0 routing_StaRosatoBalibago.0" vType="bus" speedFactor="1.00" vaporized=""/>
    <personinfo id="JollibeetoPalengke.2" depart="240.00" type="ped" speedFactor="1.01" duration="124.40" waitingTime="0.00" timeLoss="12.33" traveltime="124.40">
        <walk depart="240.00" departPos="10.42" arrival="364.40" arrivalPos="27.04" duration="124.40" routeLength="157.27" timeLoss="12.33" maxSpeed="1.40" waitingTime="0.00"/>
    </personinfo>
    <personinfo id="PalengketoJollibee.2" depart="240.00" type="ped" speedFactor="1.03" duration="127.20" waitingTime="0.00" timeLoss="12.35" traveltime="127.20">
        <walk depart="240.00" departPos="25.00" arrival="367.20" arrivalPos="5.21" duration="127.20" routeLength="164.52" timeLoss="12.35" maxSpeed="1.43" waitingTime="0.00"/>
    </personinfo>
    <tripinfo id="StaRosatoNuvali.0" depart="193.30" departLane="92878383#0_1" departPos="8.10" departPosLat="0.00" departSpeed="8.33" departDelay="0.00" arrival="381.60" arrivalLane="145507700#3_1" arrivalPos="783.31" arrivalPosLat="0.00" arrivalSpeed="27.73" duration="188.30" routeLength="2442.86" waitingTime="0.00" waitingCount="0" stopTime="0.00" timeLoss="18.49" rerouteNo="1" devices="tripinfo_StaRosatoNuvali.0 routing_StaRosatoNuvali.0" vType="jeep" speedFactor="1.00" vaporized=""/>
    <tripinfo id="CalambatoBalibago.1" depart="238.20" departLane="185930141#0_2" departPos="2.30" departPosLat="0.00" departSpeed="26.36" departDelay="0.00" arrival="394.50" arrivalLane="89908334_1" arrivalPos="36.84" arrivalPosLat="0.00" arrivalSpeed="11.18" duration="156.30" routeLength="913.97" waitingTime="94.50" waitingCount="1" stopTime="0.00" timeLoss="112.56" rerouteNo="1" devices="tripinfo_CalambatoBalibago.1 routing_CalambatoBalibago.1" vType="tricycle" speedFactor="0.95" vaporized=""/>
    <tripinfo id="CalambatoBalibago.2" depart="267.10" departLane="185930141#0_2" departPos="8.10" departPosLat="0.00" departSpeed="27.78" departDelay="0.00" arrival="403.30" arrivalLane="89908334_1" arrivalPos="36.84" arrivalPosLat="0.00" arrivalSpeed="8.87" duration="136.20" routeLength="908.17" waitingTime="61.00" waitingCount="1" stopTime="0.00" timeLoss="94.80" rerouteNo="1" devices="tripinfo_CalambatoBalibago.2 routing_CalambatoBalibago.2" vType="jeep" speedFactor="1.00" vaporized=""/>
    <personinfo id="STItoSakayan.1" depart="120.00" type="ped" speedFactor="1.01" duration="294.70" waitingTime="0.50" timeLoss="29.50" traveltime="294.70">
        <walk depart="120.00" departPos="25.00" arrival="414.70" arrivalPos="27.04" duration="294.70" routeLength="373.08" timeLoss="29.50" maxSpeed="1.41" waitingTime="0.50"/>
    </personinfo>
    <personinfo id="PalengketoSTI.1" depart="120.00" type="ped" speedFactor="1.00" duration="295.10" waitingTime="1.20" timeLoss="30.54" traveltime="295.10">
        <walk depart="120.00" departPos="25.00" arrival="415.10" arrivalPos="19.02" duration="295.10" routeLength="369.14" timeLoss="30.54" maxSpeed="1.40" waitingTime="1.20"/>
    </personinfo>
    <personinfo id="JollibeetoTarget.0" depart="0.00" type="ped" speedFactor="1.08" duration="416.10" waitingTime="2.20" timeLoss="46.92" traveltime="416.10">
        <walk depart="0.00" departPos="10.42" arrival="416.10" arrivalPos="16.04" duration="416.10" routeLength="555.05" timeLoss="46.92" maxSpeed="1.50" waitingTime="2.20"/>
    </personinfo>
    <tripinfo id="StaRosatoCalamba.1" depart="93.90" departLane="92878383#0_1" departPos="5.10" departPosLat="0.00" departSpeed="7.91" departDelay="0.00" arrival="419.70" arrivalLane="-185930141#0_1" arrivalPos="428.88" arrivalPosLat="-0.00" arrivalSpeed="26.37" duration="325.80" routeLength="1855.46" waitingTime="137.50" waitingCount="2" stopTime="0.00" timeLoss="168.14" rerouteNo="1" devices="tripinfo_StaRosatoCalamba.1 routing_StaRosatoCalamba.1" vType="car" speedFactor="0.95" vaporized=""/>
    <tripinfo id="StaRosatoCalamba.0" depart="77.50" departLane="92878383#0_1" departPos="7.20" departPosLat="0.00" departSpeed="7.76" departDelay="0.00" arrival="426.30" arrivalLane="-185930141#0_1" arrivalPos="428.88" arrivalPosLat="-0.00" arrivalSpeed="25.83" duration="348.80" routeLength="1853.36" waitingTime="155.70" waitingCount="2" stopTime="0.00" timeLoss="188.45" rerouteNo="1" devices="tripinfo_StaRosatoCalamba.0 routing_StaRosatoCalamba.0" vType="truck" speedFactor="0.93" vaporized=""/>
    <tripinfo id="StaRosatoCalamba.2" depart="216.90" departLane="92878383#0_1" departPos="8.10" departPosLat="0.00" departSpeed="8.33" departDelay="0.00" arrival="427.80" arrivalLane="-185930141#0_2" arrivalPos="428.88" arrivalPosLat="0.00" arrivalSpeed="27.74" duration="210.90" routeLength="1852.46" waitingTime="27.70" waitingCount="1" stopTime="0.00" timeLoss="61.56" rerouteNo="1" devices="tripinfo_StaRosatoCalamba.2 routing_StaRosatoCalamba.2" vType="jeep" speedFactor="1.00" vaporized=""/>
    <tripinfo id="NuvalitoCalamba.0" depart="121.00" departLane="-145507700#3_1" departPos="8.10" departPosLat="0.00" departSpeed="27.78" departDelay="0.00" arrival="429.10" arrivalLane="-185930141#0_1" arrivalPos="428.88" arrivalPosLat="-0.00" arrivalSpeed="27.74" duration="308.10" routeLength="2318.76" waitingTime="170.60" waitingCount="2" stopTime="0.00" timeLoss="223.42" rerouteNo="1" devices="tripinfo_NuvalitoCalamba.0 routing_NuvalitoCalamba.0" vType="jeep" speedFactor="1.00" vaporized=""/>
    <personinfo id="PalengketoTarget.0" depart="0.00" type="ped" speedFactor="1.10" duration="429.90" waitingTime="1.40" timeLoss="44.19" traveltime="429.90">
        <walk depart="0.00" departPos="25.00" arrival="429.90" arrivalPos="16.04" duration="429.90" routeLength="589.17" timeLoss="44.19" maxSpeed="1.53" waitingTime="1.40"/>
    </personinfo>
    <personinfo id="JollibeetoPalengke.3" depart="360.00" type="ped" speedFactor="1.08" duration="115.90" waitingTime="0.00" timeLoss="11.31" traveltime="115.90">
        <walk depart="360.00" departPos="10.42" arrival="475.90" arrivalPos="27.04" duration="115.90" routeLength="157.27" timeLoss="11.31" maxSpeed="1.50" waitingTime="0.00"/>
    </personinfo>
    <tripinfo id="NuvalitoBiñan.0" depart="405.00" departLane="-145507700#3_1" departPos="2.30" departPosLat="0.00" departSpeed="29.51" departDelay="0.00" arrival="481.80" arrivalLane="-553887793#0_2" arrivalPos="201.31" arrivalPosLat="0.00" arrivalSpeed="29.49" duration="76.80" routeLength="2096.19" waitingTime="0.00" waitingCount="0" stopTime="0.00" timeLoss="4.54" rerouteNo="1" devices="tripinfo_NuvalitoBiñan.0 routing_NuvalitoBiñan.0" vType="motorcycle" speedFactor="1.06" vaporized=""/>
    <personinfo id="PalengketoJollibee.3" depart="360.00" type="ped" speedFactor="1.02" duration="129.10" waitingTime="0.20" timeLoss="13.35" traveltime="129.10">
        <walk depart="360.00" departPos="25.00" arrival="489.10" arrivalPos="5.21" duration="129.10" routeLength="164.52" timeLoss="13.35" maxSpeed="1.42" waitingTime="0.20"/>
    </personinfo>
    <personinfo id="TargettoSakayan.0" depart="0.00" type="ped" speedFactor="0.97" duration="491.40" waitingTime="0.00" timeLoss="49.53" traveltime="491.40">
        <walk depart="0.00" departPos="25.00" arrival="491.40" arrivalPos="27.04" duration="491.40" routeLength="596.09" timeLoss="49.53" maxSpeed="1.35" waitingTime="0.00"/>
    </personinfo>
    <tripinfo id="NuvalitoStaRosa.0" depart="128.70" departLane="-145507700#3_2" departPos="5.10" departPosLat="0.00" departSpeed="26.12" departDelay="0.00" arrival="504.70" arrivalLane="-92878383#0_1" arrivalPos="603.68" arrivalPosLat="-0.00" arrivalSpeed="7.80" duration="376.00" routeLength="2600.04" waitingTime="154.70" waitingCount="1" stopTime="0.00" timeLoss="179.61" rerouteNo="1" devices="tripinfo_NuvalitoStaRosa.0 routing_NuvalitoStaRosa.0" vType="car" speedFactor="0.94" vaporized=""/>
    <personinfo id="JollibeetoSTI.2" depart="240.00" type="ped" speedFactor="1.01" duration="268.00" waitingTime="1.10" timeLoss="28.04" traveltime="268.00">
        <walk depart="240.00" departPos="10.42" arrival="508.00" arrivalPos="19.02" duration="268.00" routeLength="335.01" timeLoss="28.04" maxSpeed="1.40" waitingTime="1.10"/>
    </personinfo>
    <personinfo id="PalengketoSTI.2" depart="240.00" type="ped" speedFactor="1.07" duration="278.50" waitingTime="1.90" timeLoss="30.43" traveltime="278.50">
        <walk depart="240.00" departPos="25.00" arrival="518.50" arrivalPos="19.02" duration="278.50" routeLength="369.14" timeLoss="30.43" maxSpeed="1.49" waitingTime="1.90"/>
    </personinfo>
    <tripinfo id="BalibagotoBiñan.0" depart="387.10" departLane="145507698_1" departPos="2.30" departPosLat="0.00" departSpeed="9.75" departDelay="0.00" arrival="519.70" arrivalLane="-553887793#0_1" arrivalPos="201.31" arrivalPosLat="0.00" arrivalSpeed="24.73" duration="132.60" routeLength="1690.81" waitingTime="4.30" waitingCount="1" stopTime="0.00" timeLoss="31.19" rerouteNo="1" devices="tripinfo_BalibagotoBiñan.0 routing_BalibagotoBiñan.0" vType="tricycle" speedFactor="0.89" vaporized=""/>
    <personinfo id="JollibeetoTarget.1" depart="120.00" type="ped" speedFactor="1.12" duration="400.20" waitingTime="2.40" timeLoss="43.16" traveltime="400.20">
        <walk depart="120.00" departPos="10.42" arrival="520.20" arrivalPos="16.04" duration="400.20" routeLength="555.05" timeLoss="43.16" maxSpeed="1.55" waitingTime="2.40"/>
    </personinfo>
    <tripinfo id="CalambatoStaRosa.0" depart="289.50" departLane="185930141#0_1" departPos="5.10" departPosLat="0.00" departSpeed="22.64" departDelay="0.00" arrival="534.20" arrivalLane="-92878383#0_1" arrivalPos="603.68" arrivalPosLat="0.00" arrivalSpeed="6.73" duration="244.70" routeLength="1808.59" waitingTime="35.20" waitingCount="1" stopTime="0.00" timeLoss="57.16" rerouteNo="1" devices="tripinfo_CalambatoStaRosa.0 routing_CalambatoStaRosa.0" vType="car" speedFactor="0.82" vaporized=""/>
    <personinfo id="STItoSakayan.2" depart="240.00" type="ped" speedFactor="0.97" duration="314.40" waitingTime="6.80" timeLoss="37.45" traveltime="314.40">
        <walk depart="240.00" departPos="25.00" arrival="554.40" arrivalPos="27.04" duration="314.40" routeLength="373.08" timeLoss="37.45" maxSpeed="1.35" waitingTime="6.80"/>
    </personinfo>
    <tripinfo id="CalambatoBalibago.3" depart="395.50" departLane="185930141#0_2" departPos="2.30" departPosLat="0.00" departSpeed="26.42" departDelay="0.00" arrival="555.30" arrivalLane="89908334_1" arrivalPos="36.84" arrivalPosLat="0.00" arrivalSpeed="11.04" duration="159.80" routeLength="913.97" waitingTime="97.60" waitingCount="1" stopTime="0.00" timeLoss="116.23" rerouteNo="1" devices="tripinfo_CalambatoBalibago.3 routing_CalambatoBalibago.3" vType="tricycle" speedFactor="0.95" vaporized=""/>
    <tripinfo id="CalambatoBalibago.4" depart="410.80" departLane="185930141#0_2" departPos="8.10" departPosLat="0.00" departSpeed="27.78" departDelay="0.00" arrival="563.60" arrivalLane="89908334_1" arrivalPos="36.84" arrivalPosLat="0.00" arrivalSpeed="8.89" duration="152.80" routeLength="908.17" waitingTime="77.70" waitingCount="1" stopTime="0.00" timeLoss="111.47" rerouteNo="1" devices="tripinfo_CalambatoBalibago.4 routing_CalambatoBalibago.4" vType="jeep" speedFactor="1.00" vaporized=""/>
    <tripinfo id="CalambatoBiñan.0" depart="457.90" departLane="185930141#0_1" departPos="5.10" departPosLat="0.00" departSpeed="23.93" departDelay="0.00" arrival="566.40" arrivalLane="-553887793#0_1" arrivalPos="201.31" arrivalPosLat="0.00" arrivalSpeed="23.89" duration="108.50" routeLength="1507.67" waitingTime="31.30" waitingCount="1" stopTime="0.00" timeLoss="45.43" rerouteNo="1" devices="tripinfo_CalambatoBiñan.0 routing_CalambatoBiñan.0" vType="car" speedFactor="0.86" vaporized=""/>
    <tripinfo id="CalambatoBiñan.1" depart="480.60" departLane="185930141#0_1" departPos="8.10" departPosLat="0.00" departSpeed="27.78" departDelay="0.00" arrival="574.90" arrivalLane="-553887793#0_2" arrivalPos="201.31" arrivalPosLat="0.00" arrivalSpeed="27.72" duration="94.30" routeLength="1504.67" waitingTime="7.80" waitingCount="1" stopTime="0.00" timeLoss="40.06" rerouteNo="1" devices="tripinfo_CalambatoBiñan.1 routing_CalambatoBiñan.1" vType="jeep" speedFactor="1.00" vaporized=""/>
    <tripinfo id="CalambatoNuvali.1" depart="272.50" departLane="185930141#0_2" departPos="7.20" departPosLat="0.00" departSpeed="28.12" departDelay="0.00" arrival="577.10" arrivalLane="145507700#3_1" arrivalPos="783.31" arrivalPosLat="-0.00" arrivalSpeed="28.07" duration="304.60" routeLength="2330.77" waitingTime="156.10" waitingCount="4" stopTime="0.00" timeLoss="220.13" rerouteNo="1" devices="tripinfo_CalambatoNuvali.1 routing_CalambatoNuvali.1" vType="truck" speedFactor="1.01" vaporized=""/>
    <tripinfo id="BiñantoCalamba.0" depart="348.40" departLane="553887793#0_1" departPos="5.10" departPosLat="0.00" departSpeed="27.11" departDelay="0.00" arrival="579.60" arrivalLane="-185930141#0_1" arrivalPos="428.88" arrivalPosLat="0.00" arrivalSpeed="27.10" duration="231.20" routeLength="1507.67" waitingTime="151.40" waitingCount="2" stopTime="0.00" timeLoss="175.52" rerouteNo="1" devices="tripinfo_BiñantoCalamba.0 routing_BiñantoCalamba.0" vType="car" speedFactor="0.98" vaporized=""/>
    <tripinfo id="CalambatoNuvali.2" depart="346.20" departLane="185930141#0_2" departPos="7.20" departPosLat="0.00" departSpeed="27.38" departDelay="0.00" arrival="580.30" arrivalLane="145507700#3_1" arrivalPos="783.31" arrivalPosLat="-0.00" arrivalSpeed="27.35" duration="234.10" routeLength="2330.77" waitingTime="96.00" waitingCount="2" stopTime="0.00" timeLoss="147.29" rerouteNo="1" devices="tripinfo_CalambatoNuvali.2 routing_CalambatoNuvali.2" vType="truck" speedFactor="0.99" vaporized=""/>
    <personinfo id="PalengketoTarget.1" depart="120.00" type="ped" speedFactor="1.03" duration="461.00" waitingTime="1.50" timeLoss="47.63" traveltime="461.00">
        <walk depart="120.00" departPos="25.00" arrival="581.00" arrivalPos="16.04" duration="461.00" routeLength="589.17" timeLoss="47.63" maxSpeed="1.43" waitingTime="1.50"/>
    </personinfo>
    <personinfo id="JollibeetoSTI.3" depart="360.00" type="ped" speedFactor="1.17" duration="236.50" waitingTime="7.80" timeLoss="30.65" traveltime="236.50">
        <walk depart="360.00" departPos="10.42" arrival="596.50" arrivalPos="19.02" duration="236.50" routeLength="335.01" timeLoss="30.65" maxSpeed="1.63" waitingTime="7.80"/>
    </personinfo>
    <personinfo id="PalengketoPuregold.0" depart="0.00" type="ped" speedFactor="1.10" duration="601.50" waitingTime="122.30" timeLoss="170.10" traveltime="601.50">
        <walk depart="0.00" departPos="25.00" arrival="601.50" arrivalPos="5.00" duration="601.50" routeLength="661.97" timeLoss="170.10" maxSpeed="1.53" waitingTime="122.30"/>
    </personinfo>
    <personinfo id="JollibeetoPalengke.4" depart="480.00" type="ped" speedFactor="1.03" duration="121.80" waitingTime="0.00" timeLoss="11.89" traveltime="121.80">
        <walk depart="480.00" departPos="10.42" arrival="601.80" arrivalPos="27.04" duration="121.80" routeLength="157.27" timeLoss="11.89" maxSpeed="1.43" waitingTime="0.00"/>
    </personinfo>
    <personinfo id="PalengketoJollibee.4" depart="480.00" type="ped" speedFactor="1.06" duration="124.10" waitingTime="0.00" timeLoss="12.44" traveltime="124.10">
        <walk depart="480.00" departPos="25.00" arrival="604.10" arrivalPos="5.21" duration="124.10" routeLength="164.52" timeLoss="12.44" maxSpeed="1.47" waitingTime="0.00"/>
    </personinfo>
    <personinfo id="PuregoldtoSakayan.0" depart="0.00" type="ped" speedFactor="1.07" duration="614.10" waitingTime="124.00" timeLoss="173.48" traveltime="614.10">
        <walk depart="0.00" departPos="9.99" arrival="614.10" arrivalPos="27.04" duration="614.10" routeLength="654.93" timeLoss="173.48" maxSpeed="1.49" waitingTime="124.00"/>
    </personinfo>
    <personinfo id="JollibeetoPureGold.0" depart="0.00" type="ped" speedFactor="1.02" duration="635.30" waitingTime="142.00" timeLoss="190.68" traveltime="635.30">
        <walk depart="0.00" departPos="10.42" arrival="635.30" arrivalPos="5.00" duration="635.30" routeLength="627.84" timeLoss="190.68" maxSpeed="1.41" waitingTime="142.00"/>
    </personinfo>
    <personinfo id="PalengketoPuregold.1" depart="120.00" type="ped" speedFactor="1.04" duration="516.00" waitingTime="1.60" timeLoss="56.17" traveltime="516.00">
        <walk depart="120.00" departPos="25.00" arrival="636.00" arrivalPos="5.00" duration="516.00" routeLength="661.97" timeLoss="56.17" maxSpeed="1.44" waitingTime="1.60"/>
    </personinfo>
    <personinfo id="STItoSakayan.3" depart="360.00" type="ped" speedFactor="0.99" duration="301.60" waitingTime="0.00" timeLoss="30.19" traveltime="301.60">
        <walk depart="360.00" departPos="25.00" arrival="661.60" arrivalPos="27.04" duration="301.60" routeLength="373.08" timeLoss="30.19" maxSpeed="1.37" waitingTime="0.00"/>
    </personinfo>
    <personinfo id="TargettoSakayan.1" depart="120.00" type="ped" speedFactor="0.87" duration="550.00" waitingTime="0.00" timeLoss="54.80" traveltime="550.00">
        <walk depart="120.00" departPos="25.00" arrival="670.00" arrivalPos="27.04" duration="550.00" routeLength="596.09" timeLoss="54.80" maxSpeed="1.20" waitingTime="0.00"/>
    </personinfo>
    <tripinfo id="StaRosatoBalibago.1" depart="313.70" departLane="92878383#0_1" departPos="8.10" departPosLat="0.00" departSpeed="8.33" departDelay="0.00" arrival="670.80" arrivalLane="-32083237#0_1" arrivalPos="36.46" arrivalPosLat="0.00" arrivalSpeed="11.26" duration="357.10" routeLength="1358.46" waitingTime="191.40" waitingCount="2" stopTime="0.00" timeLoss="223.72" rerouteNo="1" devices="tripinfo_StaRosatoBalibago.1 routing_StaRosatoBalibago.1" vType="jeep" speedFactor="1.00" vaporized=""/>
    <tripinfo id="BiñantoStaRosa.1" depart="347.60" departLane="553887793#0_2" departPos="8.10" departPosLat="0.00" departSpeed="27.78" departDelay="0.00" arrival="676.40" arrivalLane="-92878383#0_1" arrivalPos="603.68" arrivalPosLat="-0.00" arrivalSpeed="8.30" duration="328.80" routeLength="1782.95" waitingTime="154.10" waitingCount="2" stopTime="0.00" timeLoss="174.69" rerouteNo="1" devices="tripinfo_BiñantoStaRosa.1 routing_BiñantoStaRosa.1" vType="jeep" speedFactor="1.00" vaporized=""/>
    <tripinfo id="StaRosatoBalibago.2" depart="444.60" departLane="92878383#0_1" departPos="2.30" departPosLat="0.00" departSpeed="7.55" departDelay="0.00" arrival="676.40" arrivalLane="-32083237#0_1" arrivalPos="36.46" arrivalPosLat="0.00" arrivalSpeed="15.64" duration="231.80" routeLength="1364.26" waitingTime="45.90" waitingCount="4" stopTime="0.00" timeLoss="83.85" rerouteNo="1" devices="tripinfo_StaRosatoBalibago.2 routing_StaRosatoBalibago.2" vType="tricycle" speedFactor="0.91" vaporized=""/>
    <tripinfo id="StaRosatoBalibago.3" depart="527.40" departLane="92878383#0_1" departPos="2.30" departPosLat="0.00" departSpeed="8.42" departDelay="0.00" arrival="678.10" arrivalLane="-32083237#0_1" arrivalPos="36.46" arrivalPosLat="0.00" arrivalSpeed="15.39" duration="150.70" routeLength="1364.26" waitingTime="0.00" waitingCount="0" stopTime="0.00" timeLoss="18.19" rerouteNo="1" devices="tripinfo_StaRosatoBalibago.3 routing_StaRosatoBalibago.3" vType="tricycle" speedFactor="1.01" vaporized=""/>
    <personinfo id="PuregoldtoSakayan.1" depart="120.00" type="ped" speedFactor="0.94" duration="558.80" waitingTime="0.00" timeLoss="55.65" traveltime="558.80">
        <walk depart="120.00" departPos="9.99" arrival="678.80" arrivalPos="27.04" duration="558.80" routeLength="654.93" timeLoss="55.65" maxSpeed="1.30" waitingTime="0.00"/>
    </personinfo>
    <personinfo id="PalengketoSTI.3" depart="360.00" type="ped" speedFactor="0.93" duration="319.20" waitingTime="1.20" timeLoss="32.49" traveltime="319.20">
        <walk depart="360.00" departPos="25.00" arrival="679.20" arrivalPos="19.02" duration="319.20" routeLength="369.14" timeLoss="32.49" maxSpeed="1.29" waitingTime="1.20"/>
    </personinfo>
    <personinfo id="JollibeetoTarget.2" depart="240.00" type="ped" speedFactor="1.02" duration="442.10" waitingTime="1.70" timeLoss="48.68" traveltime="442.10">
        <walk depart="240.00" departPos="10.42" arrival="682.10" arrivalPos="16.04" duration="442.10" routeLength="555.05" timeLoss="48.68" maxSpeed="1.41" waitingTime="1.70"/>
    </personinfo>
    <personinfo id="TargettoSakayan.2" depart="240.00" type="ped" speedFactor="1.05" duration="455.70" waitingTime="2.80" timeLoss="47.46" traveltime="455.70">
        <walk depart="240.00" departPos="25.00" arrival="695.70" arrivalPos="27.04" duration="455.70" routeLength="596.09" timeLoss="47.46" maxSpeed="1.46" waitingTime="2.80"/>
    </personinfo>
    <tripinfo id="NuvalitoBiñan.1" depart="559.40" departLane="-145507700#3_1" departPos="5.10" departPosLat="0.00" departSpeed="27.66" departDelay="0.00" arrival="696.50" arrivalLane="-553887793#0_2" arrivalPos="201.31" arrivalPosLat="0.00" arrivalSpeed="27.57" duration="137.10" routeLength="2093.39" waitingTime="40.40" waitingCount="2" stopTime="0.00" timeLoss="60.10" rerouteNo="1" devices="tripinfo_NuvalitoBiñan.1 routing_NuvalitoBiñan.1" vType="car" speedFactor="1.00" vaporized=""/>
    <tripinfo id="StaRosatoNuvali.2" depart="511.60" departLane="92878383#0_1" departPos="5.10" departPosLat="0.00" departSpeed="9.32" departDelay="0.00" arrival="699.50" arrivalLane="145507700#3_2" arrivalPos="783.31" arrivalPosLat="0.00" arrivalSpeed="30.95" duration="187.90" routeLength="2445.86" waitingTime="0.00" waitingCount="0" stopTime="0.00" timeLoss="35.80" rerouteNo="1" devices="tripinfo_StaRosatoNuvali.2 routing_StaRosatoNuvali.2" vType="car" speedFactor="1.12" vaporized=""/>
    <personinfo id="PalengketoTarget.2" depart="240.00" type="ped" speedFactor="1.03" duration="461.50" waitingTime="2.10" timeLoss="49.53" traveltime="461.50">
        <walk depart="240.00" departPos="25.00" arrival="701.50" arrivalPos="16.04" duration="461.50" routeLength="589.17" timeLoss="49.53" maxSpeed="1.43" waitingTime="2.10"/>
    </personinfo>
    <tripinfo id="StaRosatoNuvali.1" depart="481.30" departLane="92878383#0_1" departPos="7.20" departPosLat="0.00" departSpeed="8.30" departDelay="0.00" arrival="703.30" arrivalLane="145507700#3_1" arrivalPos="783.31" arrivalPosLat="0.00" arrivalSpeed="27.62" duration="222.00" routeLength="2443.76" waitingTime="20.90" waitingCount="2" stopTime="0.00" timeLoss="51.54" rerouteNo="1" devices="tripinfo_StaRosatoNuvali.1 routing_StaRosatoNuvali.1" vType="truck" speedFactor="1.00" vaporized=""/>