<?xml version="1.0" encoding="UTF-8"?>

<!-- generated on 2026-02-22 21:26:51 by Eclipse SUMO sumo Version 1.24.0
<sumoConfiguration xmlns:xsi="http://www.w3.org/2001/XMLSchema-instance" xsi:noNamespaceSchemaLocation="http://sumo.dlr.de/xsd/sumoConfiguration.xsd">

    <input>
        <net-file value="Balibago_traci/network/balibago_baseline.net.xml"/>
        <route-files value="Balibago_traci/demand/flows_normal_traffic.rou.xml"/>
        <additional-files value="Balibago_traci/additionals/balibago.poly.xml,Balibago_traci/ additionals/balibago.add.xml"/>
    </input>

    <output>
        <tripinfo-output value="Balibago_traci/output_A2C/test_baseline_normal_traffic_trips.xml"/>
        <statistic-output value="Balibago_traci/output_A2C/test_baseline_normal_traffic_stats.xml"/>
    </output>

    <time>
        <begin value="0"/>
        <end value="10800"/>
        <step-length value="0.1"/>
    </time>

    <processing>
        <lateral-resolution value="0.1"/>
        <collision.action value="none"/>
        <collision.check-junctions value="false"/>
        <collision.mingap-factor value="0"/>
    </processing>

    <report>
        <no-warnings value="true"/>
    </report>

    <traci_server>
        <remote-port value="53796"/>
    </traci_server>

    <gui_only>
        <delay value="0"/>
    </gui_only>

</sumoConfiguration>
-->

<tripinfos xmlns:xsi="http://www.w3.org/2001/XMLSchema-instance" xsi:noNamespaceSchemaLocation="http://sumo.dlr.de/xsd/tripinfo_file.xsd">
    <tripinfo id="BalibagotoNuvali.0" depart="9.20" departLane="777619905_1" departPos="5.10" departPosLat="0.00" departSpeed="0.00" departDelay="0.00" arrival="85.90" arrivalLane="145507700#3_1" arrivalPos="783.31" arrivalPosLat="-0.00" arrivalSpeed="27.72" duration="76.70" routeLength="1312.87" waitingTime="0.00" waitingCount="0" stopTime="0.00" timeLoss="23.60" rerouteNo="1" devices="tripinfo_BalibagotoNuvali.0 routing_BalibagotoNuvali.0" vType="bus" speedFactor="1.00" vaporized=""/>
    <personinfo id="JollibeetoPalengke.0" depart="0.00" type="ped" speedFactor="1.06" duration="118.50" waitingTime="0.00" timeLoss="11.67" traveltime="118.50">
        <walk depart="0.00" departPos="10.42" arrival="118.50" arrivalPos="27.04" duration="118.50" routeLength="157.27" timeLoss="11.67" maxSpeed="1.47" waitingTime="0.00"/>
    </personinfo>
    <personinfo id="PalengketoJollibee.0" depart="0.00" type="ped" speedFactor="0.94" duration="139.80" waitingTime="0.00" timeLoss="13.98" traveltime="139.80">
        <walk depart="0.00" departPos="25.00" arrival="139.80" arrivalPos="5.21" duration="139.80" routeLength="164.52" timeLoss="13.98" maxSpeed="1.31" waitingTime="0.00"/>
    </personinfo>
    <tripinfo id="BiñantoBalibago.0" depart="90.20" departLane="553887793#0_1" departPos="12.10" departPosLat="0.00" departSpeed="27.78" departDelay="0.00" arrival="212.40" arrivalLane="-32083237#0_1" arrivalPos="36.46" arrivalPosLat="0.00" arrivalSpeed="11.20" duration="122.20" routeLength="992.33" waitingTime="53.60" waitingCount="1" stopTime="0.00" timeLoss="82.76" rerouteNo="1" devices="tripinfo_BiñantoBalibago.0 routing_BiñantoBalibago.0" vType="bus" speedFactor="1.00" vaporized=""/>
    <personinfo id="JollibeetoSTI.0" depart="0.00" type="ped" speedFactor="1.18" duration="228.10" waitingTime="0.80" timeLoss="23.44" traveltime="228.10">
        <walk depart="0.00" departPos="10.42" arrival="228.10" arrivalPos="19.02" duration="228.10" routeLength="335.01" timeLoss="23.44" maxSpeed="1.64" waitingTime="0.80"/>
    </personinfo>
    <personinfo id="PalengketoJollibee.1" depart="120.00" type="ped" speedFactor="1.10" duration="119.20" waitingTime="0.00" timeLoss="11.82" traveltime="119.20">
        <walk depart="120.00" departPos="25.00" arrival="239.20" arrivalPos="5.21" duration="119.20" routeLength="164.52" timeLoss="11.82" maxSpeed="1.53" waitingTime="0.00"/>
    </personinfo>
    <personinfo id="JollibeetoPalengke.1" depart="120.00" type="ped" speedFactor="0.94" duration="134.10" waitingTime="0.00" timeLoss="13.42" traveltime="134.10">
        <walk depart="120.00" departPos="10.42" arrival="254.10" arrivalPos="27.04" duration="134.10" routeLength="157.27" timeLoss="13.42" maxSpeed="1.30" waitingTime="0.00"/>
    </personinfo>
    <tripinfo id="CalambatoNuvali.0" depart="49.20" departLane="185930141#0_2" departPos="7.20" departPosLat="0.00" departSpeed="28.45" departDelay="0.00" arrival="258.60" arrivalLane="145507700#3_1" arrivalPos="783.31" arrivalPosLat="-0.00" arrivalSpeed="28.40" duration="209.40" routeLength="2330.77" waitingTime="81.80" waitingCount="2" stopTime="0.00" timeLoss="125.94" rerouteNo="1" devices="tripinfo_CalambatoNuvali.0 routing_CalambatoNuvali.0" vType="truck" speedFactor="1.02" vaporized=""/>
    <personinfo id="PalengketoSTI.0" depart="0.00" type="ped" speedFactor="0.96" duration="309.00" waitingTime="1.00" timeLoss="33.01" traveltime="309.00">
        <walk depart="0.00" departPos="25.00" arrival="309.00" arrivalPos="19.02" duration="309.00" routeLength="369.14" timeLoss="33.01" maxSpeed="1.34" waitingTime="1.00"/>
    </personinfo>
    <personinfo id="STItoSakayan.0" depart="0.00" type="ped" speedFactor="0.95" duration="313.30" waitingTime="0.00" timeLoss="30.87" traveltime="313.30">
        <walk depart="0.00" departPos="25.00" arrival="313.30" arrivalPos="27.04" duration="313.30" routeLength="373.08" timeLoss="30.87" maxSpeed="1.32" waitingTime="0.00"/>
    </personinfo>
    <tripinfo id="CalambatoBalibago.0" depart="194.30" departLane="185930141#0_2" departPos="2.30" departPosLat="0.00" departSpeed="24.40" departDelay="0.00" arrival="315.60" arrivalLane="89908334_1" arrivalPos="36.84" arrivalPosLat="0.00" arrivalSpeed="11.04" duration="121.30" routeLength="913.97" waitingTime="56.50" waitingCount="1" stopTime="0.00" timeLoss="74.11" rerouteNo="1" devices="tripinfo_CalambatoBalibago.0 routing_CalambatoBalibago.0" vType="tricycle" speedFactor="0.88" vaporized=""/>
    <tripinfo id="CalambatoBalibago.1" depart="238.20" departLane="185930141#0_2" departPos="2.30" departPosLat="0.00" departSpeed="26.36" departDelay="0.00" arrival="318.30" arrivalLane="89908334_1" arrivalPos="36.84" arrivalPosLat="0.00" arrivalSpeed="11.05" duration="80.10" routeLength="913.97" waitingTime="10.50" waitingCount="1" stopTime="0.00" timeLoss="36.48" rerouteNo="1" devices="tripinfo_CalambatoBalibago.1 routing_CalambatoBalibago.1" vType="tricycle" speedFactor="0.95" vaporized=""/>
    <tripinfo id="CalambatoBalibago.2" depart="267.10" departLane="185930141#0_2" departPos="8.10" departPosLat="0.00" departSpeed="27.78" departDelay="0.00" arrival="330.30" arrivalLane="89908334_1" arrivalPos="36.84" arrivalPosLat="0.00" arrivalSpeed="8.98" duration="63.20" routeLength="908.17" waitingTime="0.00" waitingCount="0" stopTime="0.00" timeLoss="21.89" rerouteNo="1" devices="tripinfo_CalambatoBalibago.2 routing_CalambatoBalibago.2" vType="jeep" speedFactor="1.00" vaporized=""/>
    <tripinfo id="BiñantoStaRosa.0" depart="24.20" departLane="553887793#0_2" departPos="5.10" departPosLat="0.00" departSpeed="26.79" departDelay="0.00" arrival="349.80" arrivalLane="-92878383#0_1" arrivalPos="603.68" arrivalPosLat="-0.00" arrivalSpeed="8.01" duration="325.60" routeLength="1785.95" waitingTime="154.80" waitingCount="1" stopTime="0.00" timeLoss="165.69" rerouteNo="1" devices="tripinfo_BiñantoStaRosa.0 routing_BiñantoStaRosa.0" vType="car" speedFactor="0.96" vaporized=""/>
    <tripinfo id="StaRosatoCalamba.0" depart="77.50" departLane="92878383#0_1" departPos="7.20" departPosLat="0.00" departSpeed="7.76" departDelay="0.00" arrival="352.50" arrivalLane="-185930141#0_1" arrivalPos="428.88" arrivalPosLat="-0.00" arrivalSpeed="25.85" duration="275.00" routeLength="1853.36" waitingTime="96.60" waitingCount="1" stopTime="0.00" timeLoss="114.59" rerouteNo="1" devices="tripinfo_StaRosatoCalamba.0 routing_StaRosatoCalamba.0" vType="truck" speedFactor="0.93" vaporized=""/>
    <personinfo id="JollibeetoSTI.1" depart="120.00" type="ped" speedFactor="1.15" duration="233.00" waitingTime="1.00" timeLoss="24.05" traveltime="233.00">
        <walk depart="120.00" departPos="10.42" arrival="353.00" arrivalPos="19.02" duration="233.00" routeLength="335.01" timeLoss="24.05" maxSpeed="1.60" waitingTime="1.00"/>
    </personinfo>
    <tripinfo id="StaRosatoCalamba.1" depart="93.90" departLane="92878383#0_1" departPos="5.10" departPosLat="0.00" departSpeed="7.91" departDelay="0.00" arrival="353.00" arrivalLane="-185930141#0_2" arrivalPos="428.88" arrivalPosLat="0.00" arrivalSpeed="26.27" duration="259.10" routeLength="1855.46" waitingTime="80.40" waitingCount="1" stopTime="0.00" timeLoss="101.43" rerouteNo="1" devices="tripinfo_StaRosatoCalamba.1 routing_StaRosatoCalamba.1" vType="car" speedFactor="0.95" vaporized=""/>
    <tripinfo id="StaRosatoBalibago.0" depart="141.60" departLane="92878383#0_1" departPos="12.10" departPosLat="0.00" departSpeed="8.33" departDelay="0.00" arrival="358.80" arrivalLane="-32083237#0_1" arrivalPos="36.46" arrivalPosLat="0.00" arrivalSpeed="11.60" duration="217.20" routeLength="1354.46" waitingTime="43.20" waitingCount="4" stopTime="0.00" timeLoss="84.31" rerouteNo="1" devices="tripinfo_StaRosatoBalibago.0 routing_StaRosatoBalibago.0" vType="bus" speedFactor="1.00" vaporized=""/>
    <personinfo id="JollibeetoPalengke.2" depart="240.00" type="ped" speedFactor="1.01" duration="124.40" waitingTime="0.00" timeLoss="12.33" traveltime="124.40">
        <walk depart="240.00" departPos="10.42" arrival="364.40" arrivalPos="27.04" duration="124.40" routeLength="157.27" timeLoss="12.33" maxSpeed="1.40" waitingTime="0.00"/>
    </personinfo>
    <personinfo id="PalengketoJollibee.2" depart="240.00" type="ped" speedFactor="1.03" duration="127.60" waitingTime="0.00" timeLoss="12.75" traveltime="127.60">
        <walk depart="240.00" departPos="25.00" arrival="367.60" arrivalPos="5.21" duration="127.60" routeLength="164.52" timeLoss="12.75" maxSpeed="1.43" waitingTime="0.00"/>
    </personinfo>
    <tripinfo id="StaRosatoCalamba.2" depart="216.90" departLane="92878383#0_1" departPos="8.10" departPosLat="0.00" departSpeed="8.33" departDelay="0.00" arrival="379.50" arrivalLane="-185930141#0_1" arrivalPos="428.88" arrivalPosLat="1.45" arrivalSpeed="27.77" duration="162.60" routeLength="1852.46" waitingTime="0.00" waitingCount="0" stopTime="0.00" timeLoss="13.18" rerouteNo="1" devices="tripinfo_StaRosatoCalamba.2 routing_StaRosatoCalamba.2" vType="jeep" speedFactor="1.00" vaporized=""/>
    <tripinfo id="StaRosatoNuvali.0" depart="193.30" departLane="92878383#0_1" departPos="8.10" departPosLat="0.00" departSpeed="8.33" departDelay="0.00" arrival="381.30" arrivalLane="145507700#3_1" arrivalPos="783.31" arrivalPosLat="0.00" arrivalSpeed="27.75" duration="188.00" routeLength="2442.86" waitingTime="0.00" waitingCount="0" stopTime="0.00" timeLoss="18.24" rerouteNo="1" devices="tripinfo_StaRosatoNuvali.0 routing_StaRosatoNuvali.0" vType="jeep" speedFactor="1.00" vaporized=""/>
    <personinfo id="STItoSakayan.1" depart="120.00" type="ped" speedFactor="1.01" duration="294.70" waitingTime="0.00" timeLoss="29.50" traveltime="294.70">
        <walk depart="120.00" departPos="25.00" arrival="414.70" arrivalPos="27.04" duration="294.70" routeLength="373.08" timeLoss="29.50" maxSpeed="1.41" waitingTime="0.00"/>
    </personinfo>
    <personinfo id="PalengketoSTI.1" depart="120.00" type="ped" speedFactor="1.00" duration="295.20" waitingTime="1.20" timeLoss="30.64" traveltime="295.20">
        <walk depart="120.00" departPos="25.00" arrival="415.20" arrivalPos="19.02" duration="295.20" routeLength="369.14" timeLoss="30.64" maxSpeed="1.40" waitingTime="1.20"/>
    </personinfo>
    <personinfo id="JollibeetoTarget.0" depart="0.00" type="ped" speedFactor="1.08" duration="415.40" waitingTime="2.20" timeLoss="46.22" traveltime="415.40">
        <walk depart="0.00" departPos="10.42" arrival="415.40" arrivalPos="16.04" duration="415.40" routeLength="555.05" timeLoss="46.22" maxSpeed="1.50" waitingTime="2.20"/>
    </personinfo>
    <personinfo id="PalengketoTarget.0" depart="0.00" type="ped" speedFactor="1.10" duration="429.90" waitingTime="1.40" timeLoss="44.19" traveltime="429.90">
        <walk depart="0.00" departPos="25.00" arrival="429.90" arrivalPos="16.04" duration="429.90" routeLength="589.17" timeLoss="44.19" maxSpeed="1.53" waitingTime="1.40"/>
    </personinfo>
    <tripinfo id="CalambatoBalibago.3" depart="395.50" departLane="185930141#0_2" departPos="2.30" departPosLat="0.00" departSpeed="26.42" departDelay="0.00" arrival="454.30" arrivalLane="89908334_1" arrivalPos="36.84" arrivalPosLat="0.00" arrivalSpeed="10.65" duration="58.80" routeLength="913.97" waitingTime="0.00" waitingCount="0" stopTime="0.00" timeLoss="15.18" rerouteNo="1" devices="tripinfo_CalambatoBalibago.3 routing_CalambatoBalibago.3" vType="tricycle" speedFactor="0.95" vaporized=""/>
    <tripinfo id="NuvalitoCalamba.0" depart="121.00" departLane="-145507700#3_1" departPos="8.10" departPosLat="0.00" departSpeed="27.78" departDelay="0.00" arrival="467.30" arrivalLane="-185930141#0_1" arrivalPos="428.88" arrivalPosLat="0.00" arrivalSpeed="27.73" duration="346.30" routeLength="2318.76" waitingTime="213.00" waitingCount="2" stopTime="0.00" timeLoss="261.65" rerouteNo="1" devices="tripinfo_NuvalitoCalamba.0 routing_NuvalitoCalamba.0" vType="jeep" speedFactor="1.00" vaporized=""/>
    <personinfo id="JollibeetoPalengke.3" depart="360.00" type="ped" speedFactor="1.08" duration="115.80" waitingTime="0.00" timeLoss="11.21" traveltime="115.80">
        <walk depart="360.00" departPos="10.42" arrival="475.80" arrivalPos="27.04" duration="115.80" routeLength="157.27" timeLoss="11.21" maxSpeed="1.50" waitingTime="0.00"/>
    </personinfo>
    <tripinfo id="NuvalitoBiñan.0" depart="405.00" departLane="-145507700#3_1" departPos="2.30" departPosLat="0.00" departSpeed="29.51" departDelay="0.00" arrival="481.90" arrivalLane="-553887793#0_2" arrivalPos="201.31" arrivalPosLat="0.00" arrivalSpeed="29.41" duration="76.90" routeLength="2096.19" waitingTime="0.00" waitingCount="0" stopTime="0.00" timeLoss="4.61" rerouteNo="1" devices="tripinfo_NuvalitoBiñan.0 routing_NuvalitoBiñan.0" vType="motorcycle" speedFactor="1.06" vaporized=""/>
    <tripinfo id="CalambatoStaRosa.0" depart="289.50" departLane="185930141#0_1" departPos="5.10" departPosLat="0.00" departSpeed="22.64" departDelay="0.00" arrival="484.40" arrivalLane="-92878383#0_1" arrivalPos="603.68" arrivalPosLat="0.00" arrivalSpeed="6.67" duration="194.90" routeLength="1808.59" waitingTime="0.10" waitingCount="1" stopTime="0.00" timeLoss="7.37" rerouteNo="1" devices="tripinfo_CalambatoStaRosa.0 routing_CalambatoStaRosa.0" vType="car" speedFactor="0.82" vaporized=""/>
    <personinfo id="PalengketoJollibee.3" depart="360.00" type="ped" speedFactor="1.02" duration="128.60" waitingTime="0.00" timeLoss="12.85" traveltime="128.60">
        <walk depart="360.00" departPos="25.00" arrival="488.60" arrivalPos="5.21" duration="128.60" routeLength="164.52" timeLoss="12.85" maxSpeed="1.42" waitingTime="0.00"/>
    </personinfo>
    <personinfo id="TargettoSakayan.0" depart="0.00" type="ped" speedFactor="0.97" duration="490.90" waitingTime="0.00" timeLoss="49.03" traveltime="490.90">
        <walk depart="0.00" departPos="25.00" arrival="490.90" arrivalPos="27.04" duration="490.90" routeLength="596.09" timeLoss="49.03" maxSpeed="1.35" waitingTime="0.00"/>
    </personinfo>
    <tripinfo id="NuvalitoStaRosa.0" depart="128.70" departLane="-145507700#3_2" departPos="5.10" departPosLat="0.00" departSpeed="26.12" departDelay="0.00" arrival="504.60" arrivalLane="-92878383#0_1" arrivalPos="603.68" arrivalPosLat="-0.00" arrivalSpeed="7.72" duration="375.90" routeLength="2600.04" waitingTime="154.90" waitingCount="1" stopTime="0.00" timeLoss="179.44" rerouteNo="1" devices="tripinfo_NuvalitoStaRosa.0 routing_NuvalitoStaRosa.0" vType="car" speedFactor="0.94" vaporized=""/>
    <personinfo id="JollibeetoSTI.2" depart="240.00" type="ped" speedFactor="1.01" duration="267.50" waitingTime="0.90" timeLoss="27.54" traveltime="267.50">
        <walk depart="240.00" departPos="10.42" arrival="507.50" arrivalPos="19.02" duration="267.50" routeLength="335.01" timeLoss="27.54" maxSpeed="1.40" waitingTime="0.90"/>
    </personinfo>
    <personinfo id="PalengketoSTI.2" depart="240.00" type="ped" speedFactor="1.07" duration="279.30" waitingTime="1.40" timeLoss="31.23" traveltime="279.30">
        <walk depart="240.00" departPos="25.00" arrival="519.30" arrivalPos="19.02" duration="279.30" routeLength="369.14" timeLoss="31.23" maxSpeed="1.49" waitingTime="1.40"/>
    </personinfo>
    <tripinfo id="BalibagotoBiñan.0" depart="387.10" departLane="145507698_1" departPos="2.30" departPosLat="0.00" departSpeed="9.75" departDelay="0.00" arrival="520.00" arrivalLane="-553887793#0_1" arrivalPos="201.31" arrivalPosLat="0.00" arrivalSpeed="24.79" duration="132.90" routeLength="1690.81" waitingTime="4.40" waitingCount="1" stopTime="0.00" timeLoss="31.41" rerouteNo="1" devices="tripinfo_BalibagotoBiñan.0 routing_BalibagotoBiñan.0" vType="tricycle" speedFactor="0.89" vaporized=""/>
    <personinfo id="JollibeetoTarget.1" depart="120.00" type="ped" speedFactor="1.12" duration="400.10" waitingTime="2.50" timeLoss="43.06" traveltime="400.10">
        <walk depart="120.00" departPos="10.42" arrival="520.10" arrivalPos="16.04" duration="400.10" routeLength="555.05" timeLoss="43.06" maxSpeed="1.55" waitingTime="2.50"/>
    </personinfo>
    <personinfo id="STItoSakayan.2" depart="240.00" type="ped" speedFactor="0.97" duration="313.90" waitingTime="6.10" timeLoss="36.95" traveltime="313.90">
        <walk depart="240.00" departPos="25.00" arrival="553.90" arrivalPos="27.04" duration="313.90" routeLength="373.08" timeLoss="36.95" maxSpeed="1.35" waitingTime="6.10"/>
    </personinfo>
    <tripinfo id="CalambatoBalibago.4" depart="410.80" departLane="185930141#0_2" departPos="8.10" departPosLat="0.00" departSpeed="27.78" departDelay="0.00" arrival="562.70" arrivalLane="89908334_1" arrivalPos="36.84" arrivalPosLat="0.00" arrivalSpeed="8.79" duration="151.90" routeLength="908.17" waitingTime="81.50" waitingCount="1" stopTime="0.00" timeLoss="110.64" rerouteNo="1" devices="tripinfo_CalambatoBalibago.4 routing_CalambatoBalibago.4" vType="jeep" speedFactor="1.00" vaporized=""/>
    <tripinfo id="BiñantoBalibago.1" depart="493.50" departLane="553887793#0_1" departPos="8.10" departPosLat="0.00" departSpeed="27.78" departDelay="0.00" arrival="563.50" arrivalLane="-32083237#0_1" arrivalPos="36.46" arrivalPosLat="0.00" arrivalSpeed="11.36" duration="70.00" routeLength="996.33" waitingTime="0.00" waitingCount="0" stopTime="0.00" timeLoss="30.39" rerouteNo="1" devices="tripinfo_BiñantoBalibago.1 routing_BiñantoBalibago.1" vType="jeep" speedFactor="1.00" vaporized=""/>
    <tripinfo id="CalambatoBiñan.0" depart="457.90" departLane="185930141#0_1" departPos="5.10" departPosLat="0.00" departSpeed="23.93" departDelay="0.00" arrival="566.30" arrivalLane="-553887793#0_1" arrivalPos="201.31" arrivalPosLat="0.00" arrivalSpeed="23.81" duration="108.40" routeLength="1507.67" waitingTime="31.30" waitingCount="1" stopTime="0.00" timeLoss="45.39" rerouteNo="1" devices="tripinfo_CalambatoBiñan.0 routing_CalambatoBiñan.0" vType="car" speedFactor="0.86" vaporized=""/>
    <tripinfo id="CalambatoNuvali.1" depart="272.50" departLane="185930141#0_2" departPos="7.20" departPosLat="0.00" departSpeed="28.12" departDelay="0.00" arrival="576.50" arrivalLane="145507700#3_1" arrivalPos="783.31" arrivalPosLat="-0.00" arrivalSpeed="28.12" duration="304.00" routeLength="2330.77" waitingTime="179.30" waitingCount="2" stopTime="0.00" timeLoss="219.54" rerouteNo="1" devices="tripinfo_CalambatoNuvali.1 routing_CalambatoNuvali.1" vType="truck" speedFactor="1.01" vaporized=""/>
    <tripinfo id="BiñantoCalamba.0" depart="348.40" departLane="553887793#0_1" departPos="5.10" departPosLat="0.00" departSpeed="27.11" departDelay="0.00" arrival="579.50" arrivalLane="-185930141#0_1" arrivalPos="428.88" arrivalPosLat="0.00" arrivalSpeed="27.09" duration="231.10" routeLength="1507.67" waitingTime="151.40" waitingCount="2" stopTime="0.00" timeLoss="175.43" rerouteNo="1" devices="tripinfo_BiñantoCalamba.0 routing_BiñantoCalamba.0" vType="car" speedFactor="0.98" vaporized=""/>
    <tripinfo id="CalambatoNuvali.2" depart="346.20" departLane="185930141#0_2" departPos="7.20" departPosLat="0.00" departSpeed="27.38" departDelay="0.00" arrival="579.90" arrivalLane="145507700#3_1" arrivalPos="783.31" arrivalPosLat="-0.00" arrivalSpeed="27.36" duration="233.70" routeLength="2330.77" waitingTime="84.50" waitingCount="3" stopTime="0.00" timeLoss="146.90" rerouteNo="1" devices="tripinfo_CalambatoNuvali.2 routing_CalambatoNuvali.2" vType="truck" speedFactor="0.99" vaporized=""/>
    <personinfo id="PalengketoTarget.1" depart="120.00" type="ped" speedFactor="1.03" duration="460.40" waitingTime="1.50" timeLoss="47.03" traveltime="460.40">
        <walk depart="120.00" departPos="25.00" arrival="580.40" arrivalPos="16.04" duration="460.40" routeLength="589.17" timeLoss="47.03" maxSpeed="1.43" waitingTime="1.50"/>
    </personinfo>
    <personinfo id="JollibeetoSTI.3" depart="360.00" type="ped" speedFactor="1.17" duration="229.40" waitingTime="0.90" timeLoss="23.55" traveltime="229.40">
        <walk depart="360.00" departPos="10.42" arrival="589.40" arrivalPos="19.02" duration="229.40" routeLength="335.01" timeLoss="23.55" maxSpeed="1.63" waitingTime="0.90"/>
    </personinfo>
    <tripinfo id="CalambatoBiñan.1" depart="480.60" departLane="185930141#0_1" departPos="8.10" departPosLat="0.00" departSpeed="27.78" departDelay="0.00" arrival="596.20" arrivalLane="-553887793#0_2" arrivalPos="201.31" arrivalPosLat="0.00" arrivalSpeed="27.74" duration="115.60" routeLength="1504.67" waitingTime="22.80" waitingCount="2" stopTime="0.00" timeLoss="61.40" rerouteNo="1" devices="tripinfo_CalambatoBiñan.1 routing_CalambatoBiñan.1" vType="jeep" speedFactor="1.00" vaporized=""/>
    <personinfo id="JollibeetoPalengke.4" depart="480.00" type="ped" speedFactor="1.03" duration="122.30" waitingTime="0.10" timeLoss="12.39" traveltime="122.30">
        <walk depart="480.00" departPos="10.42" arrival="602.30" arrivalPos="27.04" duration="122.30" routeLength="157.27" timeLoss="12.39" maxSpeed="1.43" waitingTime="0.10"/>
    </personinfo>
    <personinfo id="PalengketoJollibee.4" depart="480.00" type="ped" speedFactor="1.06" duration="124.10" waitingTime="0.00" timeLoss="12.44" traveltime="124.10">
        <walk depart="480.00" departPos="25.00" arrival="604.10" arrivalPos="5.21" duration="124.10" routeLength="164.52" timeLoss="12.44" maxSpeed="1.47" waitingTime="0.00"/>
    </personinfo>
    <personinfo id="STItoSakayan.3" depart="360.00" type="ped" speedFactor="0.99" duration="301.90" waitingTime="0.00" timeLoss="30.49" traveltime="301.90">
        <walk depart="360.00" departPos="25.00" arrival="661.90" arrivalPos="27.04" duration="301.90" routeLength="373.08" timeLoss="30.49" maxSpeed="1.37" waitingTime="0.00"/>
    </personinfo>
    <personinfo id="TargettoSakayan.1" depart="120.00" type="ped" speedFactor="0.87" duration="550.40" waitingTime="0.30" timeLoss="55.20" traveltime="550.40">
        <walk depart="120.00" departPos="25.00" arrival="670.40" arrivalPos="27.04" duration="550.40" routeLength="596.09" timeLoss="55.20" maxSpeed="1.20" waitingTime="0.30"/>
    </personinfo>
    <tripinfo id="StaRosatoBalibago.1" depart="313.70" departLane="92878383#0_1" departPos="8.10" departPosLat="0.00" departSpeed="8.33" departDelay="0.00" arrival="671.00" arrivalLane="-32083237#0_1" arrivalPos="36.46" arrivalPosLat="0.00" arrivalSpeed="11.21" duration="357.30" routeLength="1358.46" waitingTime="191.50" waitingCount="2" stopTime="0.00" timeLoss="223.90" rerouteNo="1" devices="tripinfo_StaRosatoBalibago.1 routing_StaRosatoBalibago.1" vType="jeep" speedFactor="1.00" vaporized=""/>
    <tripinfo id="CalambatoBalibago.5" depart="576.00" departLane="185930141#0_2" departPos="2.30" departPosLat="0.00" departSpeed="29.60" departDelay="0.00" arrival="674.00" arrivalLane="89908334_1" arrivalPos="36.84" arrivalPosLat="0.00" arrivalSpeed="11.04" duration="98.00" routeLength="913.97" waitingTime="39.60" waitingCount="1" stopTime="0.00" timeLoss="59.02" rerouteNo="1" devices="tripinfo_CalambatoBalibago.5 routing_CalambatoBalibago.5" vType="tricycle" speedFactor="1.07" vaporized=""/>
    <tripinfo id="StaRosatoBalibago.2" depart="444.60" departLane="92878383#0_1" departPos="2.30" departPosLat="0.00" departSpeed="7.55" departDelay="0.00" arrival="676.60" arrivalLane="-32083237#0_1" arrivalPos="36.46" arrivalPosLat="0.00" arrivalSpeed="15.59" duration="232.00" routeLength="1364.26" waitingTime="45.90" waitingCount="4" stopTime="0.00" timeLoss="84.05" rerouteNo="1" devices="tripinfo_StaRosatoBalibago.2 routing_StaRosatoBalibago.2" vType="tricycle" speedFactor="0.91" vaporized=""/>
    <tripinfo id="BiñantoStaRosa.1" depart="347.60" departLane="553887793#0_2" departPos="8.10" departPosLat="0.00" departSpeed="27.78" departDelay="0.00" arrival="676.80" arrivalLane="-92878383#0_1" arrivalPos="603.68" arrivalPosLat="-0.00" arrivalSpeed="8.29" duration="329.20" routeLength="1782.95" waitingTime="154.30" waitingCount="2" stopTime="0.00" timeLoss="175.15" rerouteNo="1" devices="tripinfo_BiñantoStaRosa.1 routing_BiñantoStaRosa.1" vType="jeep" speedFactor="1.00" vaporized=""/>
    <tripinfo id="StaRosatoBalibago.3" depart="527.40" departLane="92878383#0_1" departPos="2.30" departPosLat="0.00" departSpeed="8.42" departDelay="0.00" arrival="678.40" arrivalLane="-32083237#0_1" arrivalPos="36.46" arrivalPosLat="0.00" arrivalSpeed="15.35" duration="151.00" routeLength="1364.26" waitingTime="0.00" waitingCount="0" stopTime="0.00" timeLoss="18.48" rerouteNo="1" devices="tripinfo_StaRosatoBalibago.3 routing_StaRosatoBalibago.3" vType="tricycle" speedFactor="1.01" vaporized=""/>
    <personinfo id="PalengketoSTI.3" depart="360.00" type="ped" speedFactor="0.93" duration="319.60" waitingTime="1.20" timeLoss="32.89" traveltime="319.60">
        <walk depart="360.00" departPos="25.00" arrival="679.60" arrivalPos="19.02" duration="319.60" routeLength="369.14" timeLoss="32.89" maxSpeed="1.29" waitingTime="1.20"/>
    </personinfo>
    <personinfo id="JollibeetoTarget.2" depart="240.00" type="ped" speedFactor="1.02" duration="441.20" waitingTime="1.80" timeLoss="47.78" traveltime="441.20">
        <walk depart="240.00" departPos="10.42" arrival="681.20" arrivalPos="16.04" duration="441.20" routeLength="555.05" timeLoss="47.78" maxSpeed="1.41" waitingTime="1.80"/>
    </personinfo>
    <personinfo id="TargettoSakayan.2" depart="240.00" type="ped" speedFactor="1.05" duration="456.20" waitingTime="2.30" timeLoss="47.96" traveltime="456.20">
        <walk depart="240.00" departPos="25.00" arrival="696.20" arrivalPos="27.04" duration="456.20" routeLength="596.09" timeLoss="47.96" maxSpeed="1.46" waitingTime="2.30"/>
    </personinfo>
    <tripinfo id="NuvalitoBiñan.1" depart="559.40" departLane="-145507700#3_1" departPos="5.10" departPosLat="0.00" departSpeed="27.66" departDelay="0.00" arrival="698.80" arrivalLane="-553887793#0_2" arrivalPos="201.31" arrivalPosLat="0.00" arrivalSpeed="27.58" duration="139.40" routeLength="2093.39" waitingTime="42.80" waitingCount="2" stopTime="0.00" timeLoss="62.39" rerouteNo="1" devices="tripinfo_NuvalitoBiñan.1 routing_NuvalitoBiñan.1" vType="car" speedFactor="1.00" vaporized=""/>
    <tripinfo id="StaRosatoNuvali.2" depart="511.60" departLane="92878383#0_1" departPos="5.10" departPosLat="0.00" departSpeed="9.32" departDelay="0.00" arrival="699.60" arrivalLane="145507700#3_2" arrivalPos="783.31" arrivalPosLat="0.00" arrivalSpeed="31.02" duration="188.00" routeLength="2445.86" waitingTime="0.30" waitingCount="1" stopTime="0.00" timeLoss="35.85" rerouteNo="1" devices="tripinfo_StaRosatoNuvali.2 routing_StaRosatoNuvali.2" vType="car" speedFactor="1.12" vaporized=""/>
    <personinfo id="PalengketoTarget.2" depart="240.00" type="ped" speedFactor="1.03" duration="460.50" waitingTime="2.20" timeLoss="48.53" traveltime="460.50">
        <walk depart="240.00" departPos="25.00" arrival="700.50" arrivalPos="16.04" duration="460.50" routeLength="589.17" timeLoss="48.53" maxSpeed="1.43" waitingTime="2.20"/>
    </personinfo>
    <tripinfo id="StaRosatoNuvali.1" depart="481.30" departLane="92878383#0_1" departPos="7.20" departPosLat="0.00" departSpeed="8.30" departDelay="0.00" arrival="703.50" arrivalLane="145507700#3_1" arrivalPos="783.31" arrivalPosLat="0.00" arrivalSpeed="27.68" duration="222.20" routeLength="2443.76" waitingTime="21.20" waitingCount="2" stopTime="0.00" timeLoss="51.78" rerouteNo="1" devices="tripinfo_StaRosatoNuvali.1 routing_StaRosatoNuvali.1" vType="truck" speedFactor="1.00" vaporized=""/>
    <tripinfo id="StaRosatoCalamba.3" depart="459.80" departLane="92878383#0_1" departPos="8.10" departPosLat="0.00" departSpeed="8.33" departDelay="0.00" arrival="707.90" arrivalLane="-185930141#0_1" arrivalPos="428.88" arrivalPosLat="-0.00" arrivalSpeed="27.73" duration="248.10" routeLength="1852.46" waitingTime="50.80" waitingCount="3" stopTime="0.00" timeLoss="98.73" rerouteNo="1" devices="tripinfo_StaRosatoCalamba.3 routing_StaRosatoCalamba.3" vType="jeep" speedFactor="1.00" vaporized=""/>
    <personinfo id="PalengketoJollibee.5" depart="600.00" type="ped" speedFactor="1.15" duration="114.50" waitingTime="0.00" timeLoss="11.74" traveltime="114.50">
        <walk depart="600.00" departPos="25.00" arrival="714.50" arrivalPos="5.21" duration="114.50" routeLength="164.52" timeLoss="11.74" maxSpeed="1.60" waitingTime="0.00"/>
    </personinfo>