<?xml version="1.0" encoding="UTF-8"?>

<!-- generated on 2026-02-22 17:44:10 by Eclipse SUMO sumo Version 1.24.0
<sumoConfiguration xmlns:xsi="http://www.w3.org/2001/XMLSchema-instance" xsi:noNamespaceSchemaLocation="http://sumo.dlr.de/xsd/sumoConfiguration.xsd">

    <input>
        <net-file value="Balibago_traci/network/balibago_signalized.net.xml"/>
        <route-files value="Balibago_traci/demand/flows_slow_traffic.rou.xml"/>
        <additional-files value="Balibago_traci/additionals/balibago.poly.xml,Balibago_traci/ additionals/balibago.add.xml"/>
    </input>

    <output>
        <tripinfo-output value="Balibago_traci/output_A2C/test_slow_trips.xml"/>
        <statistic-output value="Balibago_traci/output_A2C/test_slow_stats.xml"/>
    </output>

    <time>
        <begin value="0"/>
        <end value="10800"/>
        <step-length value="0.1"/>
    </time>

    <processing>
        <lateral-resolution value="0.1"/>
        <collision.action value="none"/>
        <collision.check-junctions value="false"/>
        <collision.mingap-factor value="0"/>
    </processing>

    <report>
        <no-warnings value="true"/>
    </report>

    <traci_server>
        <remote-port value="51477"/>
    </traci_server>

    <gui_only>
        <delay value="0"/>
    </gui_only>

</sumoConfiguration>
-->

<tripinfos xmlns:xsi="http://www.w3.org/2001/XMLSchema-instance" xsi:noNamespaceSchemaLocation="http://sumo.dlr.de/xsd/tripinfo_file.xsd">
    <tripinfo id="BalibagotoNuvali.0" depart="9.20" departLane="777619905_1" departPos="5.10" departPosLat="0.00" departSpeed="0.00" departDelay="0.00" arrival="85.80" arrivalLane="145507700#3_1" arrivalPos="783.31" arrivalPosLat="-0.00" arrivalSpeed="27.75" duration="76.60" routeLength="1312.87" waitingTime="0.00" waitingCount="0" stopTime="0.00" timeLoss="23.56" rerouteNo="1" devices="tripinfo_BalibagotoNuvali.0 routing_BalibagotoNuvali.0" vType="jeep" speedFactor="1.00" vaporized=""/>
    <personinfo id="JollibeetoPalengke.0" depart="0.00" type="ped" speedFactor="1.06" duration="126.40" waitingTime="7.30" timeLoss="19.57" traveltime="126.40">
        <walk depart="0.00" departPos="10.42" arrival="126.40" arrivalPos="27.04" duration="126.40" routeLength="157.27" timeLoss="19.57" maxSpeed="1.47" waitingTime="7.30"/>
    </personinfo>
    <personinfo id="PalengketoJollibee.0" depart="0.00" type="ped" speedFactor="1.02" duration="128.70" waitingTime="0.00" timeLoss="13.02" traveltime="128.70">
        <walk depart="0.00" departPos="25.00" arrival="128.70" arrivalPos="5.21" duration="128.70" routeLength="164.52" timeLoss="13.02" maxSpeed="1.42" waitingTime="0.00"/>
    </personinfo>
    <tripinfo id="BiñantoBalibago.0" depart="90.20" departLane="553887793#0_1" departPos="8.10" departPosLat="0.00" departSpeed="27.78" departDelay="0.00" arrival="153.20" arrivalLane="-32083237#0_1" arrivalPos="36.46" arrivalPosLat="0.00" arrivalSpeed="11.14" duration="63.00" routeLength="996.33" waitingTime="0.00" waitingCount="0" stopTime="0.00" timeLoss="23.40" rerouteNo="1" devices="tripinfo_BiñantoBalibago.0 routing_BiñantoBalibago.0" vType="jeep" speedFactor="1.00" vaporized=""/>
    <personinfo id="PalengketoJollibee.1" depart="60.00" type="ped" speedFactor="1.01" duration="130.50" waitingTime="0.00" timeLoss="13.30" traveltime="130.50">
        <walk depart="60.00" departPos="25.00" arrival="190.50" arrivalPos="5.21" duration="130.50" routeLength="164.52" timeLoss="13.30" maxSpeed="1.40" waitingTime="0.00"/>
    </personinfo>
    <personinfo id="JollibeetoPalengke.1" depart="60.00" type="ped" speedFactor="0.94" duration="133.90" waitingTime="0.00" timeLoss="13.22" traveltime="133.90">
        <walk depart="60.00" departPos="10.42" arrival="193.90" arrivalPos="27.04" duration="133.90" routeLength="157.27" timeLoss="13.22" maxSpeed="1.30" waitingTime="0.00"/>
    </personinfo>
    <tripinfo id="BalibagotoBiñan.0" depart="37.20" departLane="145507698_1" departPos="7.55" departPosLat="0.00" departSpeed="0.00" departDelay="0.00" arrival="208.70" arrivalLane="-553887793#0_1" arrivalPos="201.31" arrivalPosLat="-0.00" arrivalSpeed="27.76" duration="171.50" routeLength="1682.41" waitingTime="22.50" waitingCount="2" stopTime="0.00" timeLoss="81.34" rerouteNo="1" devices="tripinfo_BalibagotoBiñan.0 routing_BalibagotoBiñan.0" vType="jeep" speedFactor="1.00" vaporized=""/>
    <personinfo id="STItoSakayan.0" depart="0.00" type="ped" speedFactor="1.24" duration="240.00" waitingTime="0.00" timeLoss="23.56" traveltime="240.00">
        <walk depart="0.00" departPos="25.00" arrival="240.00" arrivalPos="27.04" duration="240.00" routeLength="373.08" timeLoss="23.56" maxSpeed="1.72" waitingTime="0.00"/>
    </personinfo>
    <tripinfo id="CalambatoNuvali.0" depart="49.20" departLane="185930141#0_2" departPos="5.10" departPosLat="0.00" departSpeed="24.79" departDelay="0.00" arrival="241.70" arrivalLane="145507700#3_1" arrivalPos="783.31" arrivalPosLat="-0.00" arrivalSpeed="24.75" duration="192.50" routeLength="2332.87" waitingTime="78.50" waitingCount="1" stopTime="0.00" timeLoss="96.61" rerouteNo="1" devices="tripinfo_CalambatoNuvali.0 routing_CalambatoNuvali.0" vType="car" speedFactor="0.89" vaporized=""/>
    <personinfo id="JollibeetoPalengke.2" depart="120.00" type="ped" speedFactor="1.01" duration="124.40" waitingTime="0.00" timeLoss="12.33" traveltime="124.40">
        <walk depart="120.00" departPos="10.42" arrival="244.40" arrivalPos="27.04" duration="124.40" routeLength="157.27" timeLoss="12.33" maxSpeed="1.40" waitingTime="0.00"/>
    </personinfo>
    <personinfo id="JollibeetoSTI.0" depart="0.00" type="ped" speedFactor="1.08" duration="249.00" waitingTime="1.20" timeLoss="26.17" traveltime="249.00">
        <walk depart="0.00" departPos="10.42" arrival="249.00" arrivalPos="19.02" duration="249.00" routeLength="335.01" timeLoss="26.17" maxSpeed="1.50" waitingTime="1.20"/>
    </personinfo>
    <tripinfo id="BalibagotoStaRosa.0" depart="55.40" departLane="145507698_1" departPos="2.30" departPosLat="0.00" departSpeed="9.75" departDelay="0.00" arrival="249.20" arrivalLane="-92878383#0_1" arrivalPos="603.68" arrivalPosLat="0.00" arrivalSpeed="9.38" duration="193.80" routeLength="1991.73" waitingTime="0.00" waitingCount="0" stopTime="0.00" timeLoss="26.24" rerouteNo="1" devices="tripinfo_BalibagotoStaRosa.0 routing_BalibagotoStaRosa.0" vType="tricycle" speedFactor="1.13" vaporized=""/>
    <tripinfo id="CalambatoBalibago.0" depart="150.70" departLane="185930141#0_2" departPos="8.10" departPosLat="0.00" departSpeed="27.78" departDelay="0.00" arrival="251.90" arrivalLane="89908334_1" arrivalPos="36.84" arrivalPosLat="0.00" arrivalSpeed="4.90" duration="101.20" routeLength="908.17" waitingTime="25.60" waitingCount="2" stopTime="0.00" timeLoss="59.89" rerouteNo="1" devices="tripinfo_CalambatoBalibago.0 routing_CalambatoBalibago.0" vType="jeep" speedFactor="1.00" vaporized=""/>
    <tripinfo id="BiñantoCalamba.0" depart="178.20" departLane="553887793#0_1" departPos="2.30" departPosLat="0.00" departSpeed="26.68" departDelay="0.00" arrival="255.20" arrivalLane="-185930141#0_1" arrivalPos="428.88" arrivalPosLat="-0.00" arrivalSpeed="26.64" duration="77.00" routeLength="1510.47" waitingTime="9.20" waitingCount="2" stopTime="0.00" timeLoss="20.37" rerouteNo="1" devices="tripinfo_BiñantoCalamba.0 routing_BiñantoCalamba.0" vType="motorcycle" speedFactor="0.96" vaporized=""/>
    <personinfo id="PalengketoJollibee.2" depart="120.00" type="ped" speedFactor="0.97" duration="135.50" waitingTime="0.00" timeLoss="13.71" traveltime="135.50">
        <walk depart="120.00" departPos="25.00" arrival="255.50" arrivalPos="5.21" duration="135.50" routeLength="164.52" timeLoss="13.71" maxSpeed="1.35" waitingTime="0.00"/>
    </personinfo>
    <tripinfo id="NuvalitoCalamba.0" depart="45.30" departLane="-145507700#3_1" departPos="5.10" departPosLat="0.00" departSpeed="27.58" departDelay="0.00" arrival="258.80" arrivalLane="-185930141#0_1" arrivalPos="428.88" arrivalPosLat="-0.00" arrivalSpeed="27.58" duration="213.50" routeLength="2321.76" waitingTime="102.30" waitingCount="1" stopTime="0.00" timeLoss="128.08" rerouteNo="1" devices="tripinfo_NuvalitoCalamba.0 routing_NuvalitoCalamba.0" vType="car" speedFactor="0.99" vaporized=""/>
    <tripinfo id="CalambatoBalibago.1" depart="194.30" departLane="185930141#0_2" departPos="8.10" departPosLat="0.00" departSpeed="27.78" departDelay="0.00" arrival="258.90" arrivalLane="89908334_1" arrivalPos="36.84" arrivalPosLat="0.00" arrivalSpeed="8.84" duration="64.60" routeLength="908.17" waitingTime="0.00" waitingCount="0" stopTime="0.00" timeLoss="23.28" rerouteNo="1" devices="tripinfo_CalambatoBalibago.1 routing_CalambatoBalibago.1" vType="jeep" speedFactor="1.00" vaporized=""/>
    <tripinfo id="BalibagotoCalamba.0" depart="80.90" departLane="145507698_1" departPos="7.55" departPosLat="0.00" departSpeed="0.00" departDelay="0.00" arrival="266.90" arrivalLane="-185930141#0_1" arrivalPos="428.88" arrivalPosLat="0.00" arrivalSpeed="27.72" duration="186.00" routeLength="1523.59" waitingTime="52.20" waitingCount="1" stopTime="0.00" timeLoss="101.76" rerouteNo="1" devices="tripinfo_BalibagotoCalamba.0 routing_BalibagotoCalamba.0" vType="jeep" speedFactor="1.00" vaporized=""/>
    <tripinfo id="NuvalitoStaRosa.0" depart="111.10" departLane="-145507700#3_1" departPos="5.10" departPosLat="0.00" departSpeed="30.86" departDelay="0.00" arrival="291.20" arrivalLane="-92878383#0_1" arrivalPos="603.68" arrivalPosLat="-0.00" arrivalSpeed="9.25" duration="180.10" routeLength="2600.04" waitingTime="0.00" waitingCount="0" stopTime="0.00" timeLoss="13.86" rerouteNo="1" devices="tripinfo_NuvalitoStaRosa.0 routing_NuvalitoStaRosa.0" vType="car" speedFactor="1.11" vaporized=""/>
    <personinfo id="JollibeetoPalengke.3" depart="180.00" type="ped" speedFactor="1.08" duration="117.90" waitingTime="0.00" timeLoss="13.31" traveltime="117.90">
        <walk depart="180.00" departPos="10.42" arrival="297.90" arrivalPos="27.04" duration="117.90" routeLength="157.27" timeLoss="13.31" maxSpeed="1.50" waitingTime="0.00"/>
    </personinfo>
    <personinfo id="JollibeetoSTI.1" depart="59.10" type="ped" speedFactor="1.12" duration="239.50" waitingTime="0.00" timeLoss="24.00" traveltime="239.50">
        <walk depart="59.10" departPos="10.42" arrival="298.60" arrivalPos="19.02" duration="239.50" routeLength="335.01" timeLoss="24.00" maxSpeed="1.55" waitingTime="0.00"/>
    </personinfo>
    <personinfo id="PalengketoSTI.0" depart="0.00" type="ped" speedFactor="0.98" duration="301.90" waitingTime="1.60" timeLoss="31.08" traveltime="301.90">
        <walk depart="0.00" departPos="25.00" arrival="301.90" arrivalPos="19.02" duration="301.90" routeLength="369.14" timeLoss="31.08" maxSpeed="1.36" waitingTime="1.60"/>
    </personinfo>
    <personinfo id="PalengketoJollibee.3" depart="180.00" type="ped" speedFactor="1.04" duration="127.50" waitingTime="0.40" timeLoss="13.65" traveltime="127.50">
        <walk depart="180.00" departPos="25.00" arrival="307.50" arrivalPos="5.21" duration="127.50" routeLength="164.52" timeLoss="13.65" maxSpeed="1.45" waitingTime="0.40"/>
    </personinfo>
    <tripinfo id="BalibagotoBiñan.1" depart="185.50" departLane="145507698_1" departPos="7.55" departPosLat="0.00" departSpeed="0.00" departDelay="0.00" arrival="320.90" arrivalLane="-553887793#0_2" arrivalPos="201.31" arrivalPosLat="0.00" arrivalSpeed="27.77" duration="135.40" routeLength="1682.41" waitingTime="2.80" waitingCount="1" stopTime="0.00" timeLoss="45.24" rerouteNo="1" devices="tripinfo_BalibagotoBiñan.1 routing_BalibagotoBiñan.1" vType="jeep" speedFactor="1.00" vaporized=""/>
    <tripinfo id="StaRosatoBiñan.0" depart="38.20" departLane="92878383#0_1" departPos="5.10" departPosLat="0.00" departSpeed="9.06" departDelay="0.00" arrival="329.30" arrivalLane="-553887793#0_1" arrivalPos="201.31" arrivalPosLat="-0.00" arrivalSpeed="30.20" duration="291.10" routeLength="1607.72" waitingTime="153.30" waitingCount="1" stopTime="0.00" timeLoss="161.74" rerouteNo="1" devices="tripinfo_StaRosatoBiñan.0 routing_StaRosatoBiñan.0" vType="car" speedFactor="1.09" vaporized=""/>
    <personinfo id="STItoSakayan.1" depart="60.00" type="ped" speedFactor="1.06" duration="281.40" waitingTime="0.00" timeLoss="28.18" traveltime="281.40">
        <walk depart="60.00" departPos="25.00" arrival="341.40" arrivalPos="27.04" duration="281.40" routeLength="373.08" timeLoss="28.18" maxSpeed="1.47" waitingTime="0.00"/>
    </personinfo>
    <tripinfo id="StaRosatoBalibago.0" depart="5.30" departLane="92878383#0_1" departPos="12.10" departPosLat="0.00" departSpeed="8.33" departDelay="0.00" arrival="343.80" arrivalLane="-32083237#0_1" arrivalPos="36.46" arrivalPosLat="0.00" arrivalSpeed="11.31" duration="338.50" routeLength="1354.46" waitingTime="178.00" waitingCount="1" stopTime="0.00" timeLoss="205.59" rerouteNo="1" devices="tripinfo_StaRosatoBalibago.0 routing_StaRosatoBalibago.0" vType="bus" speedFactor="1.00" vaporized=""/>
    <tripinfo id="BiñantoStaRosa.0" depart="24.20" departLane="553887793#0_1" departPos="12.10" departPosLat="0.00" departSpeed="27.78" departDelay="0.00" arrival="348.90" arrivalLane="-92878383#0_1" arrivalPos="603.68" arrivalPosLat="-0.00" arrivalSpeed="8.27" duration="324.70" routeLength="1778.95" waitingTime="155.40" waitingCount="1" stopTime="0.00" timeLoss="170.82" rerouteNo="1" devices="tripinfo_BiñantoStaRosa.0 routing_BiñantoStaRosa.0" vType="bus" speedFactor="1.00" vaporized=""/>
    <personinfo id="PalengketoJollibee.4" depart="240.00" type="ped" speedFactor="1.14" duration="115.30" waitingTime="0.00" timeLoss="11.37" traveltime="115.30">
        <walk depart="240.00" departPos="25.00" arrival="355.30" arrivalPos="5.21" duration="115.30" routeLength="164.52" timeLoss="11.37" maxSpeed="1.58" waitingTime="0.00"/>
    </personinfo>
    <tripinfo id="StaRosatoBalibago.1" depart="141.60" departLane="92878383#0_1" departPos="8.10" departPosLat="0.00" departSpeed="8.33" departDelay="0.00" arrival="362.30" arrivalLane="-32083237#0_1" arrivalPos="36.46" arrivalPosLat="0.00" arrivalSpeed="11.31" duration="220.70" routeLength="1358.46" waitingTime="41.20" waitingCount="2" stopTime="0.00" timeLoss="87.34" rerouteNo="1" devices="tripinfo_StaRosatoBalibago.1 routing_StaRosatoBalibago.1" vType="jeep" speedFactor="1.00" vaporized=""/>
    <personinfo id="JollibeetoPalengke.4" depart="240.00" type="ped" speedFactor="1.03" duration="123.90" waitingTime="0.60" timeLoss="13.99" traveltime="123.90">
        <walk depart="240.00" departPos="10.42" arrival="363.90" arrivalPos="27.04" duration="123.90" routeLength="157.27" timeLoss="13.99" maxSpeed="1.43" waitingTime="0.60"/>
    </personinfo>
    <personinfo id="PalengketoSTI.1" depart="60.00" type="ped" speedFactor="0.96" duration="310.00" waitingTime="1.20" timeLoss="32.10" traveltime="310.00">
        <walk depart="60.00" departPos="25.00" arrival="370.00" arrivalPos="19.02" duration="310.00" routeLength="369.14" timeLoss="32.10" maxSpeed="1.33" waitingTime="1.20"/>
    </personinfo>
    <tripinfo id="NuvalitoBiñan.0" depart="271.60" departLane="-145507700#3_1" departPos="5.10" departPosLat="0.00" departSpeed="29.34" departDelay="0.00" arrival="379.90" arrivalLane="-553887793#0_2" arrivalPos="201.31" arrivalPosLat="0.00" arrivalSpeed="29.29" duration="108.30" routeLength="2093.39" waitingTime="19.90" waitingCount="1" stopTime="0.00" timeLoss="35.71" rerouteNo="1" devices="tripinfo_NuvalitoBiñan.0 routing_NuvalitoBiñan.0" vType="car" speedFactor="1.06" vaporized=""/>
    <personinfo id="JollibeetoSTI.2" depart="118.10" type="ped" speedFactor="1.02" duration="264.00" waitingTime="0.00" timeLoss="26.54" traveltime="264.00">
        <walk depart="118.10" departPos="10.42" arrival="382.10" arrivalPos="19.02" duration="264.00" routeLength="335.01" timeLoss="26.54" maxSpeed="1.41" waitingTime="0.00"/>
    </personinfo>
    <tripinfo id="StaRosatoBalibago.2" depart="224.80" departLane="92878383#0_1" departPos="2.30" departPosLat="0.00" departSpeed="8.17" departDelay="0.00" arrival="383.10" arrivalLane="-32083237#0_1" arrivalPos="36.46" arrivalPosLat="0.00" arrivalSpeed="15.17" duration="158.30" routeLength="1364.26" waitingTime="3.80" waitingCount="2" stopTime="0.00" timeLoss="21.64" rerouteNo="1" devices="tripinfo_StaRosatoBalibago.2 routing_StaRosatoBalibago.2" vType="tricycle" speedFactor="0.98" vaporized=""/>
    <tripinfo id="BiñantoBalibago.1" depart="333.00" departLane="553887793#0_1" departPos="2.30" departPosLat="0.00" departSpeed="30.32" departDelay="0.00" arrival="388.80" arrivalLane="-32083237#0_1" arrivalPos="36.46" arrivalPosLat="0.00" arrivalSpeed="15.54" duration="55.80" routeLength="1002.13" waitingTime="0.00" waitingCount="0" stopTime="0.00" timeLoss="19.36" rerouteNo="1" devices="tripinfo_BiñantoBalibago.1 routing_BiñantoBalibago.1" vType="tricycle" speedFactor="1.09" vaporized=""/>
    <tripinfo id="CalambatoBalibago.2" depart="238.20" departLane="185930141#0_2" departPos="2.30" departPosLat="0.00" departSpeed="28.71" departDelay="0.00" arrival="393.40" arrivalLane="89908334_1" arrivalPos="36.84" arrivalPosLat="0.00" arrivalSpeed="11.10" duration="155.20" routeLength="913.97" waitingTime="96.10" waitingCount="1" stopTime="0.00" timeLoss="115.07" rerouteNo="1" devices="tripinfo_CalambatoBalibago.2 routing_CalambatoBalibago.2" vType="tricycle" speedFactor="1.03" vaporized=""/>
    <tripinfo id="StaRosatoNuvali.0" depart="193.30" departLane="92878383#0_1" departPos="7.20" departPosLat="0.00" departSpeed="8.36" departDelay="0.00" arrival="396.80" arrivalLane="145507700#3_1" arrivalPos="783.31" arrivalPosLat="0.00" arrivalSpeed="27.84" duration="203.50" routeLength="2443.76" waitingTime="9.60" waitingCount="1" stopTime="0.00" timeLoss="34.38" rerouteNo="1" devices="tripinfo_StaRosatoNuvali.0 routing_StaRosatoNuvali.0" vType="truck" speedFactor="1.00" vaporized=""/>
    <personinfo id="STItoSakayan.2" depart="120.00" type="ped" speedFactor="1.09" duration="278.50" waitingTime="3.80" timeLoss="31.50" traveltime="278.50">
        <walk depart="120.00" departPos="25.00" arrival="398.50" arrivalPos="27.04" duration="278.50" routeLength="373.08" timeLoss="31.50" maxSpeed="1.51" waitingTime="3.80"/>
    </personinfo>
    <personinfo id="PalengketoSTI.2" depart="120.00" type="ped" speedFactor="1.06" duration="280.80" waitingTime="1.40" timeLoss="29.38" traveltime="280.80">
        <walk depart="120.00" departPos="25.00" arrival="400.80" arrivalPos="19.02" duration="280.80" routeLength="369.14" timeLoss="29.38" maxSpeed="1.47" waitingTime="1.40"/>
    </personinfo>
    <tripinfo id="CalambatoBalibago.3" depart="267.10" departLane="185930141#0_2" departPos="8.10" departPosLat="0.00" departSpeed="27.78" departDelay="0.00" arrival="403.10" arrivalLane="89908334_1" arrivalPos="36.84" arrivalPosLat="0.00" arrivalSpeed="8.86" duration="136.00" routeLength="908.17" waitingTime="61.00" waitingCount="1" stopTime="0.00" timeLoss="94.86" rerouteNo="1" devices="tripinfo_CalambatoBalibago.3 routing_CalambatoBalibago.3" vType="jeep" speedFactor="1.00" vaporized=""/>
    <tripinfo id="BiñantoStaRosa.1" depart="250.00" departLane="553887793#0_1" departPos="7.20" departPosLat="0.00" departSpeed="27.84" departDelay="0.00" arrival="406.90" arrivalLane="-92878383#0_1" arrivalPos="603.68" arrivalPosLat="-0.00" arrivalSpeed="8.31" duration="156.90" routeLength="1783.85" waitingTime="0.00" waitingCount="0" stopTime="0.00" timeLoss="3.10" rerouteNo="1" devices="tripinfo_BiñantoStaRosa.1 routing_BiñantoStaRosa.1" vType="truck" speedFactor="1.00" vaporized=""/>
    <tripinfo id="BalibagotoNuvali.1" depart="337.00" departLane="777619905_1" departPos="5.10" departPosLat="0.00" departSpeed="0.00" departDelay="0.00" arrival="413.70" arrivalLane="145507700#3_1" arrivalPos="783.31" arrivalPosLat="-0.00" arrivalSpeed="27.75" duration="76.70" routeLength="1312.87" waitingTime="0.00" waitingCount="0" stopTime="0.00" timeLoss="23.56" rerouteNo="1" devices="tripinfo_BalibagotoNuvali.1 routing_BalibagotoNuvali.1" vType="jeep" speedFactor="1.00" vaporized=""/>
    <tripinfo id="StaRosatoCalamba.3" depart="216.90" departLane="92878383#0_1" departPos="2.30" departPosLat="0.00" departSpeed="8.84" departDelay="0.00" arrival="414.00" arrivalLane="-185930141#0_2" arrivalPos="428.88" arrivalPosLat="-1.40" arrivalSpeed="29.29" duration="197.10" routeLength="1858.26" waitingTime="36.70" waitingCount="1" stopTime="0.00" timeLoss="55.67" rerouteNo="1" devices="tripinfo_StaRosatoCalamba.3 routing_StaRosatoCalamba.3" vType="motorcycle" speedFactor="1.06" vaporized=""/>
    <tripinfo id="StaRosatoCalamba.2" depart="94.70" departLane="92878383#0_1" departPos="2.30" departPosLat="0.00" departSpeed="4.90" departDelay="0.00" arrival="414.20" arrivalLane="-185930141#0_2" arrivalPos="428.88" arrivalPosLat="0.00" arrivalSpeed="28.66" duration="319.50" routeLength="1858.26" waitingTime="125.20" waitingCount="3" stopTime="0.00" timeLoss="175.18" rerouteNo="1" devices="tripinfo_StaRosatoCalamba.2 routing_StaRosatoCalamba.2" vType="motorcycle" speedFactor="1.04" vaporized=""/>
    <personinfo id="PalengketoJollibee.5" depart="300.00" type="ped" speedFactor="1.11" duration="118.80" waitingTime="0.30" timeLoss="12.26" traveltime="118.80">
        <walk depart="300.00" departPos="25.00" arrival="418.80" arrivalPos="5.21" duration="118.80" routeLength="164.52" timeLoss="12.26" maxSpeed="1.54" waitingTime="0.30"/>
    </personinfo>
    <tripinfo id="StaRosatoCalamba.1" depart="93.90" departLane="92878383#0_1" departPos="5.10" departPosLat="0.00" departSpeed="7.63" departDelay="0.00" arrival="420.20" arrivalLane="-185930141#0_1" arrivalPos="428.88" arrivalPosLat="0.00" arrivalSpeed="25.38" duration="326.30" routeLength="1855.46" waitingTime="128.70" waitingCount="3" stopTime="0.00" timeLoss="162.86" rerouteNo="1" devices="tripinfo_StaRosatoCalamba.1 routing_StaRosatoCalamba.1" vType="car" speedFactor="0.92" vaporized=""/>
    <tripinfo id="CalambatoBalibago.4" depart="368.10" departLane="185930141#0_2" departPos="2.30" departPosLat="0.00" departSpeed="30.04" departDelay="0.00" arrival="421.70" arrivalLane="89908334_1" arrivalPos="36.84" arrivalPosLat="0.00" arrivalSpeed="11.03" duration="53.60" routeLength="913.97" waitingTime="0.00" waitingCount="0" stopTime="0.00" timeLoss="15.37" rerouteNo="1" devices="tripinfo_CalambatoBalibago.4 routing_CalambatoBalibago.4" vType="tricycle" speedFactor="1.08" vaporized=""/>
    <tripinfo id="NuvalitoCalamba.2" depart="205.50" departLane="-145507700#3_1" departPos="8.10" departPosLat="0.00" departSpeed="27.78" departDelay="0.00" arrival="424.90" arrivalLane="-185930141#0_1" arrivalPos="428.88" arrivalPosLat="-0.00" arrivalSpeed="27.74" duration="219.40" routeLength="2318.76" waitingTime="77.40" waitingCount="1" stopTime="0.00" timeLoss="134.71" rerouteNo="1" devices="tripinfo_NuvalitoCalamba.2 routing_NuvalitoCalamba.2" vType="jeep" speedFactor="1.00" vaporized=""/>
    <tripinfo id="StaRosatoCalamba.0" depart="77.50" departLane="92878383#0_1" departPos="8.10" departPosLat="0.00" departSpeed="8.33" departDelay="0.00" arrival="427.20" arrivalLane="-185930141#0_2" arrivalPos="428.88" arrivalPosLat="0.00" arrivalSpeed="27.75" duration="349.70" routeLength="1852.46" waitingTime="148.30" waitingCount="3" stopTime="0.00" timeLoss="200.35" rerouteNo="1" devices="tripinfo_StaRosatoCalamba.0 routing_StaRosatoCalamba.0" vType="jeep" speedFactor="1.00" vaporized=""/>
    <tripinfo id="BiñantoNuvali.0" depart="318.30" departLane="553887793#0_1" departPos="8.10" departPosLat="0.00" departSpeed="27.78" departDelay="0.00" arrival="428.00" arrivalLane="145507700#3_1" arrivalPos="783.31" arrivalPosLat="-0.00" arrivalSpeed="27.76" duration="109.70" routeLength="2080.73" waitingTime="6.40" waitingCount="1" stopTime="0.00" timeLoss="33.74" rerouteNo="1" devices="tripinfo_BiñantoNuvali.0 routing_BiñantoNuvali.0" vType="jeep" speedFactor="1.00" vaporized=""/>
    <tripinfo id="NuvalitoCalamba.1" depart="121.00" departLane="-145507700#3_2" departPos="5.10" departPosLat="0.00" departSpeed="25.56" departDelay="0.00" arrival="429.10" arrivalLane="-185930141#0_2" arrivalPos="428.88" arrivalPosLat="-0.00" arrivalSpeed="25.49" duration="308.10" routeLength="2321.76" waitingTime="177.70" waitingCount="2" stopTime="0.00" timeLoss="216.00" rerouteNo="1" devices="tripinfo_NuvalitoCalamba.1 routing_NuvalitoCalamba.1" vType="car" speedFactor="0.92" vaporized=""/>
    <personinfo id="JollibeetoTarget.0" depart="0.00" type="ped" speedFactor="1.03" duration="434.90" waitingTime="2.60" timeLoss="47.43" traveltime="434.90">
        <walk depart="0.00" departPos="10.42" arrival="434.90" arrivalPos="16.04" duration="434.90" routeLength="555.05" timeLoss="47.43" maxSpeed="1.43" waitingTime="2.60"/>
    </personinfo>
    <personinfo id="JollibeetoSTI.3" depart="177.10" type="ped" speedFactor="0.99" duration="271.00" waitingTime="0.00" timeLoss="26.61" traveltime="271.00">
        <walk depart="177.10" departPos="10.42" arrival="448.10" arrivalPos="19.02" duration="271.00" routeLength="335.01" timeLoss="26.61" maxSpeed="1.37" waitingTime="0.00"/>
    </personinfo>
    <personinfo id="JollibeetoPalengke.5" depart="300.00" type="ped" speedFactor="0.83" duration="152.00" waitingTime="0.00" timeLoss="15.73" traveltime="152.00">
        <walk depart="300.00" departPos="10.42" arrival="452.00" arrivalPos="27.04" duration="152.00" routeLength="157.27" timeLoss="15.73" maxSpeed="1.15" waitingTime="0.00"/>
    </personinfo>
    <personinfo id="PalengketoTarget.0" depart="0.00" type="ped" speedFactor="0.99" duration="478.10" waitingTime="1.50" timeLoss="51.08" traveltime="478.10">
        <walk depart="0.00" departPos="25.00" arrival="478.10" arrivalPos="16.04" duration="478.10" routeLength="589.17" timeLoss="51.08" maxSpeed="1.38" waitingTime="1.50"/>
    </personinfo>
    <personinfo id="PalengketoTarget.1" depart="59.10" type="ped" speedFactor="1.12" duration="421.30" waitingTime="0.00" timeLoss="41.97" traveltime="421.30">
        <walk depart="59.10" departPos="25.00" arrival="480.40" arrivalPos="16.04" duration="421.30" routeLength="589.17" timeLoss="41.97" maxSpeed="1.55" waitingTime="0.00"/>
    </personinfo>
    <personinfo id="JollibeetoPalengke.6" depart="360.00" type="ped" speedFactor="1.05" duration="120.40" waitingTime="0.00" timeLoss="12.12" traveltime="120.40">
        <walk depart="360.00" departPos="10.42" arrival="480.40" arrivalPos="27.04" duration="120.40" routeLength="157.27" timeLoss="12.12" maxSpeed="1.45" waitingTime="0.00"/>
    </personinfo>
    <personinfo id="PalengketoSTI.3" depart="180.00" type="ped" speedFactor="0.99" duration="300.60" waitingTime="1.10" timeLoss="31.35" traveltime="300.60">
        <walk depart="180.00" departPos="25.00" arrival="480.60" arrivalPos="19.02" duration="300.60" routeLength="369.14" timeLoss="31.35" maxSpeed="1.37" waitingTime="1.10"/>
    </personinfo>
    <tripinfo id="BalibagotoStaRosa.1" depart="214.70" departLane="145507698_1" departPos="7.55" departPosLat="0.00" departSpeed="0.00" departDelay="0.00" arrival="483.50" arrivalLane="-92878383#0_1" arrivalPos="603.68" arrivalPosLat="-0.00" arrivalSpeed="8.32" duration="268.80" routeLength="1983.33" waitingTime="44.60" waitingCount="1" stopTime="0.00" timeLoss="80.12" rerouteNo="1" devices="tripinfo_BalibagotoStaRosa.1 routing_BalibagotoStaRosa.1" vType="jeep" speedFactor="1.00" vaporized=""/>
    <personinfo id="JollibeetoTarget.1" depart="59.10" type="ped" speedFactor="1.02" duration="435.00" waitingTime="0.60" timeLoss="44.51" traveltime="435.00">
        <walk depart="59.10" departPos="10.42" arrival="494.10" arrivalPos="16.04" duration="435.00" routeLength="555.05" timeLoss="44.51" maxSpeed="1.42" waitingTime="0.60"/>
    </personinfo>
    <personinfo id="TargettoSakayan.0" depart="0.00" type="ped" speedFactor="0.98" duration="494.60" waitingTime="1.50" timeLoss="56.61" traveltime="494.60">
        <walk depart="0.00" departPos="25.00" arrival="494.60" arrivalPos="27.04" duration="494.60" routeLength="596.09" timeLoss="56.61" maxSpeed="1.36" waitingTime="1.50"/>
    </personinfo>
    <tripinfo id="NuvalitoBiñan.1" depart="405.00" departLane="-145507700#3_1" departPos="5.10" departPosLat="0.00" departSpeed="32.88" departDelay="0.00" arrival="496.10" arrivalLane="-553887793#0_2" arrivalPos="201.31" arrivalPosLat="0.00" arrivalSpeed="32.75" duration="91.10" routeLength="2093.39" waitingTime="7.00" waitingCount="2" stopTime="0.00" timeLoss="26.32" rerouteNo="1" devices="tripinfo_NuvalitoBiñan.1 routing_NuvalitoBiñan.1" vType="car" speedFactor="1.18" vaporized=""/>
    <personinfo id="STItoSakayan.3" depart="180.00" type="ped" speedFactor="0.94" duration="317.70" waitingTime="1.40" timeLoss="33.12" traveltime="317.70">
        <walk depart="180.00" departPos="25.00" arrival="497.70" arrivalPos="27.04" duration="317.70" routeLength="373.08" timeLoss="33.12" maxSpeed="1.31" waitingTime="1.40"/>
    </personinfo>
    <personinfo id="PalengketoJollibee.6" depart="360.00" type="ped" speedFactor="0.93" duration="141.00" waitingTime="0.00" timeLoss="13.90" traveltime="141.00">
        <walk depart="360.00" departPos="25.00" arrival="501.00" arrivalPos="5.21" duration="141.00" routeLength="164.52" timeLoss="13.90" maxSpeed="1.29" waitingTime="0.00"/>
    </personinfo>
    <personinfo id="STItoSakayan.4" depart="240.00" type="ped" speedFactor="1.08" duration="275.60" waitingTime="0.00" timeLoss="27.50" traveltime="275.60">
        <walk depart="240.00" departPos="25.00" arrival="515.60" arrivalPos="27.04" duration="275.60" routeLength="373.08" timeLoss="27.50" maxSpeed="1.50" waitingTime="0.00"/>
    </personinfo>