<?xml version="1.0" encoding="UTF-8"?>

<!-- generated on 2026-02-22 19:09:59 by Eclipse SUMO sumo Version 1.24.0
<sumoConfiguration xmlns:xsi="http://www.w3.org/2001/XMLSchema-instance" xsi:noNamespaceSchemaLocation="http://sumo.dlr.de/xsd/sumoConfiguration.xsd">

    <input>
        <net-file value="Balibago_traci/network/balibago_signalized.net.xml"/>
        <route-files value="Balibago_traci/demand/flows_jam_traffic.rou.xml"/>
        <additional-files value="Balibago_traci/additionals/balibago.poly.xml,Balibago_traci/ additionals/balibago.add.xml"/>
    </input>

    <output>
        <tripinfo-output value="Balibago_traci/output_A2C/test_jam_trips.xml"/>
        <statistic-output value="Balibago_traci/output_A2C/test_jam_stats.xml"/>
    </output>

    <time>
        <begin value="0"/>
        <end value="10800"/>
        <step-length value="0.1"/>
    </time>

    <processing>
        <lateral-resolution value="0.1"/>
        <collision.action value="none"/>
        <collision.check-junctions value="false"/>
        <collision.mingap-factor value="0"/>
    </processing>

    <report>
        <no-warnings value="true"/>
    </report>

    <traci_server>
        <remote-port value="49689"/>
    </traci_server>

    <gui_only>
        <delay value="0"/>
    </gui_only>

</sumoConfiguration>
-->

<tripinfos xmlns:xsi="http://www.w3.org/2001/XMLSchema-instance" xsi:noNamespaceSchemaLocation="http://sumo.dlr.de/xsd/tripinfo_file.xsd">
    <tripinfo id="NuvalitoBiñan.0" depart="0.70" departLane="-145507700#3_1" departPos="5.10" departPosLat="0.00" departSpeed="29.19" departDelay="0.00" arrival="84.50" arrivalLane="-553887793#0_2" arrivalPos="201.31" arrivalPosLat="0.00" arrivalSpeed="29.15" duration="83.80" routeLength="2093.39" waitingTime="0.00" waitingCount="0" stopTime="0.00" timeLoss="10.86" rerouteNo="1" devices="tripinfo_NuvalitoBiñan.0 routing_NuvalitoBiñan.0" vType="car" speedFactor="1.05" vaporized=""/>
    <tripinfo id="BalibagotoNuvali.0" depart="9.20" departLane="777619905_1" departPos="5.10" departPosLat="0.00" departSpeed="0.00" departDelay="0.00" arrival="85.70" arrivalLane="145507700#3_1" arrivalPos="783.31" arrivalPosLat="-0.00" arrivalSpeed="27.75" duration="76.50" routeLength="1312.87" waitingTime="0.00" waitingCount="0" stopTime="0.00" timeLoss="23.44" rerouteNo="1" devices="tripinfo_BalibagotoNuvali.0 routing_BalibagotoNuvali.0" vType="jeep" speedFactor="1.00" vaporized=""/>
    <personinfo id="PalengketoJollibee.0" depart="0.00" type="ped" speedFactor="1.21" duration="109.10" waitingTime="0.00" timeLoss="11.24" traveltime="109.10">
        <walk depart="0.00" departPos="25.00" arrival="109.10" arrivalPos="5.21" duration="109.10" routeLength="164.52" timeLoss="11.24" maxSpeed="1.68" waitingTime="0.00"/>
    </personinfo>
    <personinfo id="JollibeetoPalengke.0" depart="0.00" type="ped" speedFactor="1.06" duration="118.60" waitingTime="0.00" timeLoss="11.77" traveltime="118.60">
        <walk depart="0.00" departPos="10.42" arrival="118.60" arrivalPos="27.04" duration="118.60" routeLength="157.27" timeLoss="11.77" maxSpeed="1.47" waitingTime="0.00"/>
    </personinfo>
    <tripinfo id="NuvalitoBalibago.0" depart="8.30" departLane="-145507700#3_1" departPos="2.30" departPosLat="0.00" departSpeed="29.25" departDelay="0.00" arrival="130.00" arrivalLane="32083201#1_1" arrivalPos="58.53" arrivalPosLat="0.00" arrivalSpeed="14.60" duration="121.70" routeLength="2060.89" waitingTime="0.00" waitingCount="0" stopTime="0.00" timeLoss="20.93" rerouteNo="1" devices="tripinfo_NuvalitoBalibago.0 routing_NuvalitoBalibago.0" vType="tricycle" speedFactor="1.05" vaporized=""/>
    <personinfo id="PalengketoJollibee.1" depart="49.40" type="ped" speedFactor="1.15" duration="114.30" waitingTime="0.00" timeLoss="11.35" traveltime="114.30">
        <walk depart="49.40" departPos="25.00" arrival="163.70" arrivalPos="5.21" duration="114.30" routeLength="164.52" timeLoss="11.35" maxSpeed="1.60" waitingTime="0.00"/>
    </personinfo>
    <personinfo id="JollibeetoPalengke.1" depart="48.70" type="ped" speedFactor="0.94" duration="139.10" waitingTime="5.00" timeLoss="18.42" traveltime="139.10">
        <walk depart="48.70" departPos="10.42" arrival="187.80" arrivalPos="27.04" duration="139.10" routeLength="157.27" timeLoss="18.42" maxSpeed="1.30" waitingTime="5.00"/>
    </personinfo>
    <tripinfo id="CalambatoBiñan.0" depart="32.70" departLane="185930141#0_1" departPos="2.30" departPosLat="0.00" departSpeed="32.27" departDelay="0.00" arrival="193.60" arrivalLane="-553887793#0_1" arrivalPos="201.31" arrivalPosLat="0.00" arrivalSpeed="32.11" duration="160.90" routeLength="1510.47" waitingTime="106.20" waitingCount="1" stopTime="0.00" timeLoss="114.03" rerouteNo="1" devices="tripinfo_CalambatoBiñan.0 routing_CalambatoBiñan.0" vType="motorcycle" speedFactor="1.16" vaporized=""/>
    <tripinfo id="BalibagotoBiñan.0" depart="37.20" departLane="145507698_1" departPos="7.55" departPosLat="0.00" departSpeed="0.00" departDelay="0.00" arrival="209.60" arrivalLane="-553887793#0_1" arrivalPos="201.31" arrivalPosLat="-0.00" arrivalSpeed="27.73" duration="172.40" routeLength="1682.41" waitingTime="21.20" waitingCount="2" stopTime="0.00" timeLoss="82.22" rerouteNo="1" devices="tripinfo_BalibagotoBiñan.0 routing_BalibagotoBiñan.0" vType="jeep" speedFactor="1.00" vaporized=""/>
    <personinfo id="PalengketoJollibee.2" depart="98.70" type="ped" speedFactor="1.13" duration="117.10" waitingTime="0.80" timeLoss="12.43" traveltime="117.10">
        <walk depart="98.70" departPos="25.00" arrival="215.80" arrivalPos="5.21" duration="117.10" routeLength="164.52" timeLoss="12.43" maxSpeed="1.57" waitingTime="0.80"/>
    </personinfo>
    <personinfo id="JollibeetoPalengke.2" depart="97.30" type="ped" speedFactor="1.01" duration="124.50" waitingTime="0.00" timeLoss="12.43" traveltime="124.50">
        <walk depart="97.30" departPos="10.42" arrival="221.80" arrivalPos="27.04" duration="124.50" routeLength="157.27" timeLoss="12.43" maxSpeed="1.40" waitingTime="0.00"/>
    </personinfo>
    <tripinfo id="NuvalitoStaRosa.0" depart="56.20" departLane="-145507700#3_2" departPos="2.30" departPosLat="0.00" departSpeed="30.29" departDelay="0.00" arrival="234.90" arrivalLane="-92878383#0_1" arrivalPos="603.68" arrivalPosLat="-0.00" arrivalSpeed="8.88" duration="178.70" routeLength="2602.84" waitingTime="0.00" waitingCount="0" stopTime="0.00" timeLoss="9.27" rerouteNo="1" devices="tripinfo_NuvalitoStaRosa.0 routing_NuvalitoStaRosa.0" vType="motorcycle" speedFactor="1.09" vaporized=""/>
    <tripinfo id="CalambatoBalibago.0" depart="150.70" departLane="185930141#0_2" departPos="12.10" departPosLat="0.00" departSpeed="27.78" departDelay="0.00" arrival="251.80" arrivalLane="89908334_1" arrivalPos="36.84" arrivalPosLat="0.00" arrivalSpeed="4.85" duration="101.10" routeLength="904.17" waitingTime="25.00" waitingCount="2" stopTime="0.00" timeLoss="59.93" rerouteNo="1" devices="tripinfo_CalambatoBalibago.0 routing_CalambatoBalibago.0" vType="bus" speedFactor="1.00" vaporized=""/>
    <personinfo id="PalengketoSTI.0" depart="0.00" type="ped" speedFactor="1.19" duration="253.60" waitingTime="1.00" timeLoss="30.74" traveltime="253.60">
        <walk depart="0.00" departPos="25.00" arrival="253.60" arrivalPos="19.02" duration="253.60" routeLength="369.14" timeLoss="30.74" maxSpeed="1.66" waitingTime="1.00"/>
    </personinfo>
    <tripinfo id="NuvalitoCalamba.0" depart="45.30" departLane="-145507700#3_1" departPos="5.10" departPosLat="0.00" departSpeed="27.56" departDelay="0.00" arrival="258.60" arrivalLane="-185930141#0_1" arrivalPos="428.88" arrivalPosLat="-0.00" arrivalSpeed="27.44" duration="213.30" routeLength="2321.76" waitingTime="102.30" waitingCount="1" stopTime="0.00" timeLoss="127.83" rerouteNo="1" devices="tripinfo_NuvalitoCalamba.0 routing_NuvalitoCalamba.0" vType="car" speedFactor="0.99" vaporized=""/>
    <tripinfo id="CalambatoBalibago.1" depart="194.30" departLane="185930141#0_2" departPos="8.10" departPosLat="0.00" departSpeed="27.78" departDelay="0.00" arrival="258.70" arrivalLane="89908334_1" arrivalPos="36.84" arrivalPosLat="0.00" arrivalSpeed="8.90" duration="64.40" routeLength="908.17" waitingTime="0.00" waitingCount="0" stopTime="0.00" timeLoss="23.09" rerouteNo="1" devices="tripinfo_CalambatoBalibago.1 routing_CalambatoBalibago.1" vType="jeep" speedFactor="1.00" vaporized=""/>
    <tripinfo id="CalambatoNuvali.0" depart="49.20" departLane="185930141#0_2" departPos="7.20" departPosLat="0.00" departSpeed="28.11" departDelay="0.00" arrival="260.00" arrivalLane="145507700#3_1" arrivalPos="783.31" arrivalPosLat="-0.00" arrivalSpeed="28.11" duration="210.80" routeLength="2330.77" waitingTime="86.80" waitingCount="2" stopTime="0.00" timeLoss="126.26" rerouteNo="1" devices="tripinfo_CalambatoNuvali.0 routing_CalambatoNuvali.0" vType="truck" speedFactor="1.01" vaporized=""/>
    <tripinfo id="BalibagotoCalamba.1" depart="80.90" departLane="145507698_1" departPos="2.30" departPosLat="0.00" departSpeed="9.75" departDelay="0.00" arrival="261.60" arrivalLane="-185930141#0_2" arrivalPos="428.88" arrivalPosLat="0.00" arrivalSpeed="27.19" duration="180.70" routeLength="1531.99" waitingTime="68.40" waitingCount="1" stopTime="0.00" timeLoss="94.16" rerouteNo="1" devices="tripinfo_BalibagotoCalamba.1 routing_BalibagotoCalamba.1" vType="tricycle" speedFactor="0.98" vaporized=""/>
    <personinfo id="JollibeetoPalengke.3" depart="146.00" type="ped" speedFactor="1.08" duration="116.90" waitingTime="0.00" timeLoss="12.31" traveltime="116.90">
        <walk depart="146.00" departPos="10.42" arrival="262.90" arrivalPos="27.04" duration="116.90" routeLength="157.27" timeLoss="12.31" maxSpeed="1.50" waitingTime="0.00"/>
    </personinfo>
    <tripinfo id="BiñantoCalamba.1" depart="178.20" departLane="553887793#0_1" departPos="5.10" departPosLat="0.00" departSpeed="24.89" departDelay="0.00" arrival="265.00" arrivalLane="-185930141#0_1" arrivalPos="428.88" arrivalPosLat="-0.00" arrivalSpeed="24.86" duration="86.80" routeLength="1507.67" waitingTime="0.00" waitingCount="0" stopTime="0.00" timeLoss="26.15" rerouteNo="1" devices="tripinfo_BiñantoCalamba.1 routing_BiñantoCalamba.1" vType="car" speedFactor="0.90" vaporized=""/>
    <tripinfo id="BalibagotoStaRosa.0" depart="58.50" departLane="145507698_1" departPos="2.30" departPosLat="0.00" departSpeed="1.00" departDelay="3.10" arrival="265.30" arrivalLane="-92878383#0_1" arrivalPos="603.68" arrivalPosLat="0.00" arrivalSpeed="8.70" duration="206.80" routeLength="1988.58" waitingTime="0.00" waitingCount="0" stopTime="0.00" timeLoss="26.01" rerouteNo="1" devices="tripinfo_BalibagotoStaRosa.0 routing_BalibagotoStaRosa.0" vType="tricycle" speedFactor="1.05" vaporized=""/>
    <tripinfo id="BalibagotoCalamba.0" depart="41.40" departLane="145507698_1" departPos="7.55" departPosLat="0.00" departSpeed="0.00" departDelay="1.00" arrival="266.90" arrivalLane="-185930141#0_1" arrivalPos="428.88" arrivalPosLat="0.00" arrivalSpeed="27.77" duration="225.50" routeLength="1526.74" waitingTime="93.20" waitingCount="2" stopTime="0.00" timeLoss="140.89" rerouteNo="1" devices="tripinfo_BalibagotoCalamba.0 routing_BalibagotoCalamba.0" vType="bus" speedFactor="1.00" vaporized=""/>
    <tripinfo id="BiñantoCalamba.0" depart="21.20" departLane="553887793#0_1" departPos="7.20" departPosLat="0.00" departSpeed="29.17" departDelay="0.00" arrival="268.30" arrivalLane="-185930141#0_1" arrivalPos="428.88" arrivalPosLat="0.00" arrivalSpeed="28.76" duration="247.10" routeLength="1505.57" waitingTime="159.10" waitingCount="1" stopTime="0.00" timeLoss="195.49" rerouteNo="1" devices="tripinfo_BiñantoCalamba.0 routing_BiñantoCalamba.0" vType="truck" speedFactor="1.05" vaporized=""/>
    <tripinfo id="NuvalitoStaRosa.1" depart="76.20" departLane="-145507700#3_1" departPos="5.10" departPosLat="0.00" departSpeed="27.45" departDelay="0.00" arrival="276.00" arrivalLane="-92878383#0_1" arrivalPos="603.68" arrivalPosLat="-0.00" arrivalSpeed="8.20" duration="199.80" routeLength="2600.04" waitingTime="0.00" waitingCount="0" stopTime="0.00" timeLoss="12.98" rerouteNo="1" devices="tripinfo_NuvalitoStaRosa.1 routing_NuvalitoStaRosa.1" vType="car" speedFactor="0.99" vaporized=""/>
    <personinfo id="JollibeetoSTI.0" depart="0.00" type="ped" speedFactor="0.96" duration="281.20" waitingTime="0.70" timeLoss="28.65" traveltime="281.20">
        <walk depart="0.00" departPos="10.42" arrival="281.20" arrivalPos="19.02" duration="281.20" routeLength="335.01" timeLoss="28.65" maxSpeed="1.33" waitingTime="0.70"/>
    </personinfo>
    <personinfo id="PalengketoJollibee.3" depart="148.00" type="ped" speedFactor="0.98" duration="135.50" waitingTime="0.70" timeLoss="14.03" traveltime="135.50">
        <walk depart="148.00" departPos="25.00" arrival="283.50" arrivalPos="5.21" duration="135.50" routeLength="164.52" timeLoss="14.03" maxSpeed="1.35" waitingTime="0.70"/>
    </personinfo>
    <personinfo id="STItoSakayan.0" depart="0.00" type="ped" speedFactor="1.05" duration="285.10" waitingTime="1.80" timeLoss="30.29" traveltime="285.10">
        <walk depart="0.00" departPos="25.00" arrival="285.10" arrivalPos="27.04" duration="285.10" routeLength="373.08" timeLoss="30.29" maxSpeed="1.46" waitingTime="1.80"/>
    </personinfo>
    <tripinfo id="NuvalitoStaRosa.2" depart="111.10" departLane="-145507700#3_1" departPos="5.10" departPosLat="0.00" departSpeed="30.02" departDelay="0.00" arrival="295.90" arrivalLane="-92878383#0_1" arrivalPos="603.68" arrivalPosLat="-0.00" arrivalSpeed="8.89" duration="184.80" routeLength="2600.04" waitingTime="0.00" waitingCount="0" stopTime="0.00" timeLoss="13.81" rerouteNo="1" devices="tripinfo_NuvalitoStaRosa.2 routing_NuvalitoStaRosa.2" vType="car" speedFactor="1.08" vaporized=""/>
    <personinfo id="PalengketoJollibee.4" depart="197.30" type="ped" speedFactor="1.18" duration="111.70" waitingTime="0.00" timeLoss="11.28" traveltime="111.70">
        <walk depart="197.30" departPos="25.00" arrival="309.00" arrivalPos="5.21" duration="111.70" routeLength="164.52" timeLoss="11.28" maxSpeed="1.64" waitingTime="0.00"/>
    </personinfo>
    <personinfo id="JollibeetoPalengke.4" depart="194.60" type="ped" speedFactor="1.03" duration="122.80" waitingTime="0.40" timeLoss="12.89" traveltime="122.80">
        <walk depart="194.60" departPos="10.42" arrival="317.40" arrivalPos="27.04" duration="122.80" routeLength="157.27" timeLoss="12.89" maxSpeed="1.43" waitingTime="0.40"/>
    </personinfo>
    <personinfo id="JollibeetoSTI.1" depart="48.00" type="ped" speedFactor="0.98" duration="272.10" waitingTime="0.60" timeLoss="27.19" traveltime="272.10">
        <walk depart="48.00" departPos="10.42" arrival="320.10" arrivalPos="19.02" duration="272.10" routeLength="335.01" timeLoss="27.19" maxSpeed="1.37" waitingTime="0.60"/>
    </personinfo>
    <tripinfo id="BalibagotoBiñan.1" depart="185.50" departLane="145507698_1" departPos="7.55" departPosLat="0.00" departSpeed="0.00" departDelay="0.00" arrival="321.00" arrivalLane="-553887793#0_1" arrivalPos="201.31" arrivalPosLat="-0.00" arrivalSpeed="27.75" duration="135.50" routeLength="1682.41" waitingTime="2.70" waitingCount="1" stopTime="0.00" timeLoss="45.38" rerouteNo="1" devices="tripinfo_BalibagotoBiñan.1 routing_BalibagotoBiñan.1" vType="jeep" speedFactor="1.00" vaporized=""/>
    <tripinfo id="StaRosatoBiñan.0" depart="38.20" departLane="92878383#0_1" departPos="5.10" departPosLat="0.00" departSpeed="7.76" departDelay="0.00" arrival="333.80" arrivalLane="-553887793#0_1" arrivalPos="201.31" arrivalPosLat="-0.00" arrivalSpeed="25.80" duration="295.60" routeLength="1607.72" waitingTime="133.00" waitingCount="1" stopTime="0.00" timeLoss="144.58" rerouteNo="1" devices="tripinfo_StaRosatoBiñan.0 routing_StaRosatoBiñan.0" vType="car" speedFactor="0.93" vaporized=""/>
    <tripinfo id="StaRosatoBiñan.1" depart="116.60" departLane="92878383#0_1" departPos="5.10" departPosLat="0.00" departSpeed="5.26" departDelay="0.60" arrival="335.10" arrivalLane="-553887793#0_1" arrivalPos="201.31" arrivalPosLat="-0.00" arrivalSpeed="27.27" duration="218.50" routeLength="1607.72" waitingTime="62.10" waitingCount="1" stopTime="0.00" timeLoss="75.75" rerouteNo="1" devices="tripinfo_StaRosatoBiñan.1 routing_StaRosatoBiñan.1" vType="car" speedFactor="0.99" vaporized=""/>
    <tripinfo id="BiñantoStaRosa.0" depart="24.20" departLane="553887793#0_2" departPos="5.10" departPosLat="0.00" departSpeed="27.00" departDelay="0.00" arrival="348.80" arrivalLane="-92878383#0_1" arrivalPos="603.68" arrivalPosLat="-0.00" arrivalSpeed="8.07" duration="324.60" routeLength="1785.95" waitingTime="154.90" waitingCount="1" stopTime="0.00" timeLoss="165.95" rerouteNo="1" devices="tripinfo_BiñantoStaRosa.0 routing_BiñantoStaRosa.0" vType="car" speedFactor="0.97" vaporized=""/>
    <personinfo id="JollibeetoSTI.2" depart="96.00" type="ped" speedFactor="1.03" duration="260.40" waitingTime="0.70" timeLoss="26.78" traveltime="260.40">
        <walk depart="96.00" departPos="10.42" arrival="356.40" arrivalPos="19.02" duration="260.40" routeLength="335.01" timeLoss="26.78" maxSpeed="1.43" waitingTime="0.70"/>
    </personinfo>
    <tripinfo id="BalibagotoNuvali.1" depart="289.70" departLane="777619905_1" departPos="2.30" departPosLat="0.00" departSpeed="5.50" departDelay="0.00" arrival="357.60" arrivalLane="145507700#3_1" arrivalPos="783.31" arrivalPosLat="-0.00" arrivalSpeed="25.53" duration="67.90" routeLength="1315.67" waitingTime="0.00" waitingCount="0" stopTime="0.00" timeLoss="9.99" rerouteNo="1" devices="tripinfo_BalibagotoNuvali.1 routing_BalibagotoNuvali.1" vType="tricycle" speedFactor="0.92" vaporized=""/>
    <personinfo id="STItoSakayan.1" depart="48.00" type="ped" speedFactor="0.98" duration="312.60" waitingTime="6.80" timeLoss="38.02" traveltime="312.60">
        <walk depart="48.00" departPos="25.00" arrival="360.60" arrivalPos="27.04" duration="312.60" routeLength="373.08" timeLoss="38.02" maxSpeed="1.36" waitingTime="6.80"/>
    </personinfo>
    <personinfo id="PalengketoSTI.1" depart="42.40" type="ped" speedFactor="0.93" duration="319.60" waitingTime="0.00" timeLoss="32.39" traveltime="319.60">
        <walk depart="42.40" departPos="25.00" arrival="362.00" arrivalPos="19.02" duration="319.60" routeLength="369.14" timeLoss="32.39" maxSpeed="1.29" waitingTime="0.00"/>
    </personinfo>
    <personinfo id="PalengketoSTI.2" depart="84.80" type="ped" speedFactor="1.07" duration="277.50" waitingTime="0.00" timeLoss="29.45" traveltime="277.50">
        <walk depart="84.80" departPos="25.00" arrival="362.30" arrivalPos="19.02" duration="277.50" routeLength="369.14" timeLoss="29.45" maxSpeed="1.49" waitingTime="0.00"/>
    </personinfo>
    <personinfo id="PalengketoJollibee.5" depart="246.60" type="ped" speedFactor="1.13" duration="117.80" waitingTime="1.50" timeLoss="13.36" traveltime="117.80">
        <walk depart="246.60" departPos="25.00" arrival="364.40" arrivalPos="5.21" duration="117.80" routeLength="164.52" timeLoss="13.36" maxSpeed="1.58" waitingTime="1.50"/>
    </personinfo>
    <tripinfo id="NuvalitoBiñan.1" depart="271.60" departLane="-145507700#3_1" departPos="7.20" departPosLat="0.00" departSpeed="29.84" departDelay="0.00" arrival="387.40" arrivalLane="-553887793#0_2" arrivalPos="201.31" arrivalPosLat="0.00" arrivalSpeed="29.82" duration="115.80" routeLength="2091.29" waitingTime="16.80" waitingCount="1" stopTime="0.00" timeLoss="44.45" rerouteNo="1" devices="tripinfo_NuvalitoBiñan.1 routing_NuvalitoBiñan.1" vType="truck" speedFactor="1.07" vaporized=""/>
    <tripinfo id="NuvalitoBiñan.2" depart="309.60" departLane="-145507700#3_2" departPos="2.30" departPosLat="0.00" departSpeed="31.90" departDelay="0.00" arrival="388.70" arrivalLane="-553887793#0_2" arrivalPos="201.31" arrivalPosLat="0.00" arrivalSpeed="31.79" duration="79.10" routeLength="2096.19" waitingTime="0.00" waitingCount="0" stopTime="0.00" timeLoss="12.21" rerouteNo="1" devices="tripinfo_NuvalitoBiñan.2 routing_NuvalitoBiñan.2" vType="tricycle" speedFactor="1.15" vaporized=""/>
    <tripinfo id="CalambatoBalibago.2" depart="238.20" departLane="185930141#0_2" departPos="2.30" departPosLat="0.00" departSpeed="30.92" departDelay="0.00" arrival="392.60" arrivalLane="89908334_1" arrivalPos="36.84" arrivalPosLat="0.00" arrivalSpeed="11.29" duration="154.40" routeLength="913.97" waitingTime="97.40" waitingCount="1" stopTime="0.00" timeLoss="117.19" rerouteNo="1" devices="tripinfo_CalambatoBalibago.2 routing_CalambatoBalibago.2" vType="tricycle" speedFactor="1.11" vaporized=""/>
    <personinfo id="PalengketoSTI.3" depart="127.10" type="ped" speedFactor="1.11" duration="266.50" waitingTime="0.00" timeLoss="26.93" traveltime="266.50">
        <walk depart="127.10" departPos="25.00" arrival="393.60" arrivalPos="19.02" duration="266.50" routeLength="369.14" timeLoss="26.93" maxSpeed="1.54" waitingTime="0.00"/>
    </personinfo>
    <tripinfo id="CalambatoBalibago.3" depart="267.10" departLane="185930141#0_2" departPos="2.30" departPosLat="0.00" departSpeed="27.86" departDelay="0.00" arrival="395.90" arrivalLane="89908334_1" arrivalPos="36.84" arrivalPosLat="0.00" arrivalSpeed="11.37" duration="128.80" routeLength="913.97" waitingTime="62.90" waitingCount="1" stopTime="0.00" timeLoss="87.46" rerouteNo="1" devices="tripinfo_CalambatoBalibago.3 routing_CalambatoBalibago.3" vType="tricycle" speedFactor="1.00" vaporized=""/>
    <personinfo id="JollibeetoPalengke.5" depart="243.30" type="ped" speedFactor="0.83" duration="152.70" waitingTime="1.20" timeLoss="16.43" traveltime="152.70">
        <walk depart="243.30" departPos="10.42" arrival="396.00" arrivalPos="27.04" duration="152.70" routeLength="157.27" timeLoss="16.43" maxSpeed="1.15" waitingTime="1.20"/>
    </personinfo>
    <tripinfo id="BiñantoStaRosa.1" depart="250.00" departLane="553887793#0_1" departPos="7.20" departPosLat="0.00" departSpeed="29.30" departDelay="0.00" arrival="399.50" arrivalLane="-92878383#0_1" arrivalPos="603.68" arrivalPosLat="-0.00" arrivalSpeed="8.77" duration="149.50" routeLength="1783.85" waitingTime="0.00" waitingCount="0" stopTime="0.00" timeLoss="3.36" rerouteNo="1" devices="tripinfo_BiñantoStaRosa.1 routing_BiñantoStaRosa.1" vType="truck" speedFactor="1.05" vaporized=""/>
    <tripinfo id="StaRosatoNuvali.0" depart="193.30" departLane="92878383#0_1" departPos="2.30" departPosLat="0.00" departSpeed="7.53" departDelay="0.00" arrival="401.90" arrivalLane="145507700#3_1" arrivalPos="783.31" arrivalPosLat="0.00" arrivalSpeed="25.10" duration="208.60" routeLength="2448.66" waitingTime="5.20" waitingCount="1" stopTime="0.00" timeLoss="20.08" rerouteNo="1" devices="tripinfo_StaRosatoNuvali.0 routing_StaRosatoNuvali.0" vType="tricycle" speedFactor="0.90" vaporized=""/>
    <personinfo id="PalengketoJollibee.6" depart="295.90" type="ped" speedFactor="1.16" duration="114.40" waitingTime="0.00" timeLoss="11.98" traveltime="114.40">
        <walk depart="295.90" departPos="25.00" arrival="410.30" arrivalPos="5.21" duration="114.40" routeLength="164.52" timeLoss="11.98" maxSpeed="1.61" waitingTime="0.00"/>
    </personinfo>
    <personinfo id="JollibeetoPalengke.6" depart="291.90" type="ped" speedFactor="1.05" duration="120.30" waitingTime="0.00" timeLoss="12.02" traveltime="120.30">
        <walk depart="291.90" departPos="10.42" arrival="412.20" arrivalPos="27.04" duration="120.30" routeLength="157.27" timeLoss="12.02" maxSpeed="1.45" waitingTime="0.00"/>
    </personinfo>
    <tripinfo id="BalibagotoNuvali.2" depart="337.00" departLane="777619905_1" departPos="5.10" departPosLat="0.00" departSpeed="0.00" departDelay="0.00" arrival="413.80" arrivalLane="145507700#3_1" arrivalPos="783.31" arrivalPosLat="-0.00" arrivalSpeed="27.74" duration="76.80" routeLength="1312.87" waitingTime="0.00" waitingCount="0" stopTime="0.00" timeLoss="23.63" rerouteNo="1" devices="tripinfo_BalibagotoNuvali.2 routing_BalibagotoNuvali.2" vType="jeep" speedFactor="1.00" vaporized=""/>
    <tripinfo id="NuvalitoCalamba.3" depart="205.50" departLane="-145507700#3_1" departPos="2.30" departPosLat="0.00" departSpeed="29.02" departDelay="0.00" arrival="416.30" arrivalLane="-185930141#0_1" arrivalPos="428.88" arrivalPosLat="-0.00" arrivalSpeed="28.73" duration="210.80" routeLength="2324.56" waitingTime="92.00" waitingCount="3" stopTime="0.00" timeLoss="129.53" rerouteNo="1" devices="tripinfo_NuvalitoCalamba.3 routing_NuvalitoCalamba.3" vType="motorcycle" speedFactor="1.04" vaporized=""/>
    <personinfo id="STItoSakayan.2" depart="96.00" type="ped" speedFactor="0.93" duration="320.60" waitingTime="0.00" timeLoss="31.55" traveltime="320.60">
        <walk depart="96.00" departPos="25.00" arrival="416.60" arrivalPos="27.04" duration="320.60" routeLength="373.08" timeLoss="31.55" maxSpeed="1.29" waitingTime="0.00"/>
    </personinfo>
    <personinfo id="JollibeetoSTI.3" depart="144.00" type="ped" speedFactor="0.98" duration="274.40" waitingTime="0.80" timeLoss="28.74" traveltime="274.40">
        <walk depart="144.00" departPos="10.42" arrival="418.40" arrivalPos="19.02" duration="274.40" routeLength="335.01" timeLoss="28.74" maxSpeed="1.36" waitingTime="0.80"/>
    </personinfo>
    <tripinfo id="StaRosatoCalamba.2" depart="94.70" departLane="92878383#0_1" departPos="2.30" departPosLat="0.00" departSpeed="4.28" departDelay="0.00" arrival="421.30" arrivalLane="-185930141#0_2" arrivalPos="428.88" arrivalPosLat="0.00" arrivalSpeed="29.38" duration="326.60" routeLength="1858.26" waitingTime="130.60" waitingCount="4" stopTime="0.00" timeLoss="185.13" rerouteNo="1" devices="tripinfo_StaRosatoCalamba.2 routing_StaRosatoCalamba.2" vType="tricycle" speedFactor="1.06" vaporized=""/>
    <tripinfo id="StaRosatoCalamba.0" depart="77.50" departLane="92878383#0_1" departPos="5.10" departPosLat="0.00" departSpeed="4.32" departDelay="0.00" arrival="422.20" arrivalLane="-185930141#0_1" arrivalPos="428.88" arrivalPosLat="0.00" arrivalSpeed="24.48" duration="344.70" routeLength="1855.46" waitingTime="146.50" waitingCount="4" stopTime="0.00" timeLoss="175.42" rerouteNo="1" devices="tripinfo_StaRosatoCalamba.0 routing_StaRosatoCalamba.0" vType="car" speedFactor="0.88" vaporized=""/>
    <personinfo id="JollibeetoTarget.0" depart="0.00" type="ped" speedFactor="1.04" duration="427.80" waitingTime="1.30" timeLoss="43.50" traveltime="427.80">
        <walk depart="0.00" departPos="10.42" arrival="427.80" arrivalPos="16.04" duration="427.80" routeLength="555.05" timeLoss="43.50" maxSpeed="1.44" waitingTime="1.30"/>
    </personinfo>
    <tripinfo id="NuvalitoCalamba.1" depart="121.00" departLane="-145507700#3_1" departPos="8.10" departPosLat="0.00" departSpeed="27.78" departDelay="0.00" arrival="428.30" arrivalLane="-185930141#0_1" arrivalPos="428.88" arrivalPosLat="-0.00" arrivalSpeed="27.76" duration="307.30" routeLength="2318.76" waitingTime="166.30" waitingCount="2" stopTime="0.00" timeLoss="222.59" rerouteNo="1" devices="tripinfo_NuvalitoCalamba.1 routing_NuvalitoCalamba.1" vType="jeep" speedFactor="1.00" vaporized=""/>
    <tripinfo id="StaRosatoCalamba.1" depart="93.90" departLane="92878383#0_1" departPos="12.10" departPosLat="0.00" departSpeed="8.33" departDelay="0.00" arrival="428.70" arrivalLane="-185930141#0_2" arrivalPos="428.88" arrivalPosLat="0.00" arrivalSpeed="27.77" duration="334.80" routeLength="1848.46" waitingTime="126.30" waitingCount="3" stopTime="0.00" timeLoss="185.90" rerouteNo="1" devices="tripinfo_StaRosatoCalamba.1 routing_StaRosatoCalamba.1" vType="bus" speedFactor="1.00" vaporized=""/>
    <personinfo id="STItoSakayan.3" depart="144.00" type="ped" speedFactor="1.06" duration="285.10" waitingTime="2.60" timeLoss="30.87" traveltime="285.10">
        <walk depart="144.00" departPos="25.00" arrival="429.10" arrivalPos="27.04" duration="285.10" routeLength="373.08" timeLoss="30.87" maxSpeed="1.47" waitingTime="2.60"/>
    </personinfo>
    <tripinfo id="BalibagotoCalamba.2" depart="277.20" departLane="145507698_1" departPos="7.55" departPosLat="0.00" departSpeed="0.00" departDelay="0.00" arrival="430.10" arrivalLane="-185930141#0_2" arrivalPos="428.88" arrivalPosLat="0.00" arrivalSpeed="27.75" duration="152.90" routeLength="1523.59" waitingTime="24.10" waitingCount="3" stopTime="0.00" timeLoss="68.75" rerouteNo="1" devices="tripinfo_BalibagotoCalamba.2 routing_BalibagotoCalamba.2" vType="jeep" speedFactor="1.00" vaporized=""/>
    <tripinfo id="NuvalitoCalamba.2" depart="127.60" departLane="-145507700#3_2" departPos="5.10" departPosLat="0.00" departSpeed="24.79" departDelay="0.00" arrival="430.50" arrivalLane="-185930141#0_1" arrivalPos="428.88" arrivalPosLat="-0.00" arrivalSpeed="24.73" duration="302.90" routeLength="2321.76" waitingTime="152.40" waitingCount="2" stopTime="0.00" timeLoss="207.89" rerouteNo="1" devices="tripinfo_NuvalitoCalamba.2 routing_NuvalitoCalamba.2" vType="car" speedFactor="0.89" vaporized=""/>
    <tripinfo id="StaRosatoCalamba.3" depart="216.90" departLane="92878383#0_1" departPos="5.10" departPosLat="0.00" departSpeed="7.66" departDelay="0.00" arrival="431.80" arrivalLane="-185930141#0_1" arrivalPos="428.88" arrivalPosLat="-0.00" arrivalSpeed="25.46" duration="214.90" routeLength="1855.46" waitingTime="19.50" waitingCount="2" stopTime="0.00" timeLoss="52.03" rerouteNo="1" devices="tripinfo_StaRosatoCalamba.3 routing_StaRosatoCalamba.3" vType="car" speedFactor="0.92" vaporized=""/>
    <tripinfo id="CalambatoBalibago.4" depart="368.10" departLane="185930141#0_2" departPos="8.10" departPosLat="0.00" departSpeed="27.78" departDelay="0.00" arrival="432.60" arrivalLane="89908334_1" arrivalPos="36.84" arrivalPosLat="0.00" arrivalSpeed="8.93" duration="64.50" routeLength="908.17" waitingTime="0.00" waitingCount="0" stopTime="0.00" timeLoss="23.22" rerouteNo="1" devices="tripinfo_CalambatoBalibago.4 routing_CalambatoBalibago.4" vType="jeep" speedFactor="1.00" vaporized=""/>