<?xml version="1.0" encoding="UTF-8"?>

<!-- generated on 2026-02-22 21:37:43 by Eclipse SUMO sumo Version 1.24.0
<sumoConfiguration xmlns:xsi="http://www.w3.org/2001/XMLSchema-instance" xsi:noNamespaceSchemaLocation="http://sumo.dlr.de/xsd/sumoConfiguration.xsd">

    <input>
        <net-file value="Balibago_traci/network/balibago_baseline.net.xml"/>
        <route-files value="Balibago_traci/demand/flows_normal_traffic.rou.xml"/>
        <additional-files value="Balibago_traci/additionals/balibago.poly.xml,Balibago_traci/ additionals/balibago.add.xml"/>
    </input>

    <output>
        <tripinfo-output value="Balibago_traci/output_NoDRL_baseline/SD_NoDRL_baseline_normal_trips.xml"/>
        <statistic-output value="Balibago_traci/output_NoDRL_baseline/SD_NoDRL_baseline_normal_stats.xml"/>
    </output>

    <time>
        <begin value="0"/>
        <end value="10800"/>
        <step-length value="0.1"/>
    </time>

    <processing>
        <lateral-resolution value="0.1"/>
        <collision.action value="none"/>
        <collision.check-junctions value="false"/>
        <collision.mingap-factor value="0"/>
    </processing>

    <report>
        <no-warnings value="true"/>
    </report>

    <traci_server>
        <remote-port value="51648"/>
    </traci_server>

    <gui_only>
        <delay value="0"/>
    </gui_only>

</sumoConfiguration>
-->

<tripinfos xmlns:xsi="http://www.w3.org/2001/XMLSchema-instance" xsi:noNamespaceSchemaLocation="http://sumo.dlr.de/xsd/tripinfo_file.xsd">
    <tripinfo id="BalibagotoNuvali.0" depart="9.20" departLane="777619905_1" departPos="5.10" departPosLat="0.00" departSpeed="0.00" departDelay="0.00" arrival="85.90" arrivalLane="145507700#3_1" arrivalPos="783.31" arrivalPosLat="-0.00" arrivalSpeed="27.72" duration="76.70" routeLength="1312.87" waitingTime="0.00" waitingCount="0" stopTime="0.00" timeLoss="23.60" rerouteNo="1" devices="tripinfo_BalibagotoNuvali.0 routing_BalibagotoNuvali.0" vType="bus" speedFactor="1.00" vaporized=""/>
    <personinfo id="JollibeetoPalengke.0" depart="0.00" type="ped" speedFactor="1.06" duration="118.50" waitingTime="0.00" timeLoss="11.67" traveltime="118.50">
        <walk depart="0.00" departPos="10.42" arrival="118.50" arrivalPos="27.04" duration="118.50" routeLength="157.27" timeLoss="11.67" maxSpeed="1.47" waitingTime="0.00"/>
    </personinfo>
    <personinfo id="PalengketoJollibee.0" depart="0.00" type="ped" speedFactor="0.94" duration="139.80" waitingTime="0.00" timeLoss="13.98" traveltime="139.80">
        <walk depart="0.00" departPos="25.00" arrival="139.80" arrivalPos="5.21" duration="139.80" routeLength="164.52" timeLoss="13.98" maxSpeed="1.31" waitingTime="0.00"/>
    </personinfo>
    <personinfo id="JollibeetoSTI.0" depart="0.00" type="ped" speedFactor="1.18" duration="228.10" waitingTime="0.80" timeLoss="23.44" traveltime="228.10">
        <walk depart="0.00" departPos="10.42" arrival="228.10" arrivalPos="19.02" duration="228.10" routeLength="335.01" timeLoss="23.44" maxSpeed="1.64" waitingTime="0.80"/>
    </personinfo>
    <tripinfo id="BiñantoBalibago.0" depart="90.20" departLane="553887793#0_1" departPos="12.10" departPosLat="0.00" departSpeed="27.78" departDelay="0.00" arrival="232.40" arrivalLane="-32083237#0_1" arrivalPos="36.46" arrivalPosLat="0.00" arrivalSpeed="11.08" duration="142.20" routeLength="992.33" waitingTime="68.90" waitingCount="2" stopTime="0.00" timeLoss="102.80" rerouteNo="1" devices="tripinfo_BiñantoBalibago.0 routing_BiñantoBalibago.0" vType="bus" speedFactor="1.00" vaporized=""/>
    <personinfo id="PalengketoJollibee.1" depart="120.00" type="ped" speedFactor="1.10" duration="119.20" waitingTime="0.00" timeLoss="11.82" traveltime="119.20">
        <walk depart="120.00" departPos="25.00" arrival="239.20" arrivalPos="5.21" duration="119.20" routeLength="164.52" timeLoss="11.82" maxSpeed="1.53" waitingTime="0.00"/>
    </personinfo>
    <personinfo id="JollibeetoPalengke.1" depart="120.00" type="ped" speedFactor="0.94" duration="134.10" waitingTime="0.00" timeLoss="13.42" traveltime="134.10">
        <walk depart="120.00" departPos="10.42" arrival="254.10" arrivalPos="27.04" duration="134.10" routeLength="157.27" timeLoss="13.42" maxSpeed="1.30" waitingTime="0.00"/>
    </personinfo>
    <tripinfo id="CalambatoNuvali.0" depart="49.20" departLane="185930141#0_2" departPos="7.20" departPosLat="0.00" departSpeed="28.45" departDelay="0.00" arrival="282.90" arrivalLane="145507700#3_1" arrivalPos="783.31" arrivalPosLat="-0.00" arrivalSpeed="28.43" duration="233.70" routeLength="2330.77" waitingTime="104.00" waitingCount="2" stopTime="0.00" timeLoss="150.20" rerouteNo="1" devices="tripinfo_CalambatoNuvali.0 routing_CalambatoNuvali.0" vType="truck" speedFactor="1.02" vaporized=""/>
    <personinfo id="PalengketoSTI.0" depart="0.00" type="ped" speedFactor="0.96" duration="309.00" waitingTime="1.00" timeLoss="33.01" traveltime="309.00">
        <walk depart="0.00" departPos="25.00" arrival="309.00" arrivalPos="19.02" duration="309.00" routeLength="369.14" timeLoss="33.01" maxSpeed="1.34" waitingTime="1.00"/>
    </personinfo>
    <personinfo id="STItoSakayan.0" depart="0.00" type="ped" speedFactor="0.95" duration="313.30" waitingTime="0.00" timeLoss="30.87" traveltime="313.30">
        <walk depart="0.00" departPos="25.00" arrival="313.30" arrivalPos="27.04" duration="313.30" routeLength="373.08" timeLoss="30.87" maxSpeed="1.32" waitingTime="0.00"/>
    </personinfo>
    <tripinfo id="CalambatoBalibago.0" depart="194.30" departLane="185930141#0_2" departPos="2.30" departPosLat="0.00" departSpeed="24.40" departDelay="0.00" arrival="315.60" arrivalLane="89908334_1" arrivalPos="36.84" arrivalPosLat="0.00" arrivalSpeed="11.04" duration="121.30" routeLength="913.97" waitingTime="56.50" waitingCount="1" stopTime="0.00" timeLoss="74.08" rerouteNo="1" devices="tripinfo_CalambatoBalibago.0 routing_CalambatoBalibago.0" vType="tricycle" speedFactor="0.88" vaporized=""/>
    <tripinfo id="CalambatoBalibago.1" depart="238.20" departLane="185930141#0_2" departPos="2.30" departPosLat="0.00" departSpeed="26.36" departDelay="0.00" arrival="318.30" arrivalLane="89908334_1" arrivalPos="36.84" arrivalPosLat="0.00" arrivalSpeed="11.05" duration="80.10" routeLength="913.97" waitingTime="10.50" waitingCount="1" stopTime="0.00" timeLoss="36.46" rerouteNo="1" devices="tripinfo_CalambatoBalibago.1 routing_CalambatoBalibago.1" vType="tricycle" speedFactor="0.95" vaporized=""/>
    <tripinfo id="CalambatoBalibago.2" depart="267.10" departLane="185930141#0_2" departPos="8.10" departPosLat="0.00" departSpeed="27.78" departDelay="0.00" arrival="330.20" arrivalLane="89908334_1" arrivalPos="36.84" arrivalPosLat="0.00" arrivalSpeed="8.93" duration="63.10" routeLength="908.17" waitingTime="0.00" waitingCount="0" stopTime="0.00" timeLoss="21.90" rerouteNo="1" devices="tripinfo_CalambatoBalibago.2 routing_CalambatoBalibago.2" vType="jeep" speedFactor="1.00" vaporized=""/>
    <personinfo id="JollibeetoSTI.1" depart="120.00" type="ped" speedFactor="1.15" duration="233.00" waitingTime="1.00" timeLoss="24.05" traveltime="233.00">
        <walk depart="120.00" departPos="10.42" arrival="353.00" arrivalPos="19.02" duration="233.00" routeLength="335.01" timeLoss="24.05" maxSpeed="1.60" waitingTime="1.00"/>
    </personinfo>
    <tripinfo id="StaRosatoBalibago.0" depart="141.60" departLane="92878383#0_1" departPos="12.10" departPosLat="0.00" departSpeed="8.33" departDelay="0.00" arrival="358.70" arrivalLane="-32083237#0_1" arrivalPos="36.46" arrivalPosLat="0.00" arrivalSpeed="11.39" duration="217.10" routeLength="1354.46" waitingTime="49.10" waitingCount="2" stopTime="0.00" timeLoss="84.19" rerouteNo="1" devices="tripinfo_StaRosatoBalibago.0 routing_StaRosatoBalibago.0" vType="bus" speedFactor="1.00" vaporized=""/>
    <personinfo id="JollibeetoPalengke.2" depart="240.00" type="ped" speedFactor="1.01" duration="124.40" waitingTime="0.00" timeLoss="12.33" traveltime="124.40">
        <walk depart="240.00" departPos="10.42" arrival="364.40" arrivalPos="27.04" duration="124.40" routeLength="157.27" timeLoss="12.33" maxSpeed="1.40" waitingTime="0.00"/>
    </personinfo>
    <tripinfo id="BiñantoStaRosa.0" depart="24.20" departLane="553887793#0_2" departPos="5.10" departPosLat="0.00" departSpeed="26.79" departDelay="0.00" arrival="364.80" arrivalLane="-92878383#0_1" arrivalPos="603.68" arrivalPosLat="-0.00" arrivalSpeed="8.01" duration="340.60" routeLength="1785.95" waitingTime="169.80" waitingCount="1" stopTime="0.00" timeLoss="180.68" rerouteNo="1" devices="tripinfo_BiñantoStaRosa.0 routing_BiñantoStaRosa.0" vType="car" speedFactor="0.96" vaporized=""/>
    <tripinfo id="StaRosatoCalamba.0" depart="77.50" departLane="92878383#0_1" departPos="7.20" departPosLat="0.00" departSpeed="7.76" departDelay="0.00" arrival="367.20" arrivalLane="-185930141#0_1" arrivalPos="428.88" arrivalPosLat="-0.00" arrivalSpeed="25.86" duration="289.70" routeLength="1853.36" waitingTime="111.60" waitingCount="1" stopTime="0.00" timeLoss="129.33" rerouteNo="1" devices="tripinfo_StaRosatoCalamba.0 routing_StaRosatoCalamba.0" vType="truck" speedFactor="0.93" vaporized=""/>
    <personinfo id="PalengketoJollibee.2" depart="240.00" type="ped" speedFactor="1.03" duration="127.60" waitingTime="0.00" timeLoss="12.75" traveltime="127.60">
        <walk depart="240.00" departPos="25.00" arrival="367.60" arrivalPos="5.21" duration="127.60" routeLength="164.52" timeLoss="12.75" maxSpeed="1.43" waitingTime="0.00"/>
    </personinfo>
    <tripinfo id="StaRosatoCalamba.1" depart="93.90" departLane="92878383#0_1" departPos="5.10" departPosLat="0.00" departSpeed="7.91" departDelay="0.00" arrival="367.80" arrivalLane="-185930141#0_2" arrivalPos="428.88" arrivalPosLat="0.00" arrivalSpeed="26.35" duration="273.90" routeLength="1855.46" waitingTime="95.40" waitingCount="1" stopTime="0.00" timeLoss="116.34" rerouteNo="1" devices="tripinfo_StaRosatoCalamba.1 routing_StaRosatoCalamba.1" vType="car" speedFactor="0.95" vaporized=""/>
    <tripinfo id="StaRosatoCalamba.2" depart="216.90" departLane="92878383#0_1" departPos="8.10" departPosLat="0.00" departSpeed="8.33" departDelay="0.00" arrival="379.40" arrivalLane="-185930141#0_1" arrivalPos="428.88" arrivalPosLat="1.45" arrivalSpeed="27.77" duration="162.50" routeLength="1852.46" waitingTime="0.00" waitingCount="0" stopTime="0.00" timeLoss="13.13" rerouteNo="1" devices="tripinfo_StaRosatoCalamba.2 routing_StaRosatoCalamba.2" vType="jeep" speedFactor="1.00" vaporized=""/>
    <tripinfo id="StaRosatoNuvali.0" depart="193.30" departLane="92878383#0_1" departPos="8.10" departPosLat="0.00" departSpeed="8.33" departDelay="0.00" arrival="395.20" arrivalLane="145507700#3_1" arrivalPos="783.31" arrivalPosLat="0.00" arrivalSpeed="27.72" duration="201.90" routeLength="2442.86" waitingTime="3.40" waitingCount="1" stopTime="0.00" timeLoss="32.10" rerouteNo="1" devices="tripinfo_StaRosatoNuvali.0 routing_StaRosatoNuvali.0" vType="jeep" speedFactor="1.00" vaporized=""/>
    <personinfo id="STItoSakayan.1" depart="120.00" type="ped" speedFactor="1.01" duration="294.70" waitingTime="0.00" timeLoss="29.50" traveltime="294.70">
        <walk depart="120.00" departPos="25.00" arrival="414.70" arrivalPos="27.04" duration="294.70" routeLength="373.08" timeLoss="29.50" maxSpeed="1.41" waitingTime="0.00"/>
    </personinfo>
    <personinfo id="PalengketoSTI.1" depart="120.00" type="ped" speedFactor="1.00" duration="295.30" waitingTime="1.20" timeLoss="30.74" traveltime="295.30">
        <walk depart="120.00" departPos="25.00" arrival="415.30" arrivalPos="19.02" duration="295.30" routeLength="369.14" timeLoss="30.74" maxSpeed="1.40" waitingTime="1.20"/>
    </personinfo>
    <personinfo id="JollibeetoTarget.0" depart="0.00" type="ped" speedFactor="1.08" duration="415.40" waitingTime="2.20" timeLoss="46.22" traveltime="415.40">
        <walk depart="0.00" departPos="10.42" arrival="415.40" arrivalPos="16.04" duration="415.40" routeLength="555.05" timeLoss="46.22" maxSpeed="1.50" waitingTime="2.20"/>
    </personinfo>
    <personinfo id="PalengketoTarget.0" depart="0.00" type="ped" speedFactor="1.10" duration="430.00" waitingTime="1.40" timeLoss="44.29" traveltime="430.00">
        <walk depart="0.00" departPos="25.00" arrival="430.00" arrivalPos="16.04" duration="430.00" routeLength="589.17" timeLoss="44.29" maxSpeed="1.53" waitingTime="1.40"/>
    </personinfo>
    <tripinfo id="CalambatoBalibago.3" depart="395.50" departLane="185930141#0_2" departPos="2.30" departPosLat="0.00" departSpeed="26.42" departDelay="0.00" arrival="454.20" arrivalLane="89908334_1" arrivalPos="36.84" arrivalPosLat="0.00" arrivalSpeed="10.64" duration="58.70" routeLength="913.97" waitingTime="0.00" waitingCount="0" stopTime="0.00" timeLoss="15.04" rerouteNo="1" devices="tripinfo_CalambatoBalibago.3 routing_CalambatoBalibago.3" vType="tricycle" speedFactor="0.95" vaporized=""/>
    <tripinfo id="NuvalitoCalamba.0" depart="121.00" departLane="-145507700#3_1" departPos="8.10" departPosLat="0.00" departSpeed="27.78" departDelay="0.00" arrival="467.20" arrivalLane="-185930141#0_1" arrivalPos="428.88" arrivalPosLat="0.00" arrivalSpeed="27.75" duration="346.20" routeLength="2318.76" waitingTime="213.10" waitingCount="2" stopTime="0.00" timeLoss="261.52" rerouteNo="1" devices="tripinfo_NuvalitoCalamba.0 routing_NuvalitoCalamba.0" vType="jeep" speedFactor="1.00" vaporized=""/>
    <personinfo id="JollibeetoPalengke.3" depart="360.00" type="ped" speedFactor="1.08" duration="116.30" waitingTime="0.00" timeLoss="11.71" traveltime="116.30">
        <walk depart="360.00" departPos="10.42" arrival="476.30" arrivalPos="27.04" duration="116.30" routeLength="157.27" timeLoss="11.71" maxSpeed="1.50" waitingTime="0.00"/>
    </personinfo>
    <tripinfo id="CalambatoStaRosa.0" depart="289.50" departLane="185930141#0_1" departPos="5.10" departPosLat="0.00" departSpeed="22.64" departDelay="0.00" arrival="481.60" arrivalLane="-92878383#0_1" arrivalPos="603.68" arrivalPosLat="0.00" arrivalSpeed="6.75" duration="192.10" routeLength="1808.59" waitingTime="0.00" waitingCount="0" stopTime="0.00" timeLoss="4.56" rerouteNo="1" devices="tripinfo_CalambatoStaRosa.0 routing_CalambatoStaRosa.0" vType="car" speedFactor="0.82" vaporized=""/>
    <tripinfo id="NuvalitoBiñan.0" depart="405.00" departLane="-145507700#3_1" departPos="2.30" departPosLat="0.00" departSpeed="29.51" departDelay="0.00" arrival="481.90" arrivalLane="-553887793#0_2" arrivalPos="201.31" arrivalPosLat="0.00" arrivalSpeed="29.41" duration="76.90" routeLength="2096.19" waitingTime="0.00" waitingCount="0" stopTime="0.00" timeLoss="4.61" rerouteNo="1" devices="tripinfo_NuvalitoBiñan.0 routing_NuvalitoBiñan.0" vType="motorcycle" speedFactor="1.06" vaporized=""/>
    <personinfo id="PalengketoJollibee.3" depart="360.00" type="ped" speedFactor="1.02" duration="128.90" waitingTime="0.00" timeLoss="13.15" traveltime="128.90">
        <walk depart="360.00" departPos="25.00" arrival="488.90" arrivalPos="5.21" duration="128.90" routeLength="164.52" timeLoss="13.15" maxSpeed="1.42" waitingTime="0.00"/>
    </personinfo>
    <personinfo id="TargettoSakayan.0" depart="0.00" type="ped" speedFactor="0.97" duration="491.00" waitingTime="0.00" timeLoss="49.13" traveltime="491.00">
        <walk depart="0.00" departPos="25.00" arrival="491.00" arrivalPos="27.04" duration="491.00" routeLength="596.09" timeLoss="49.13" maxSpeed="1.35" waitingTime="0.00"/>
    </personinfo>
    <personinfo id="JollibeetoSTI.2" depart="240.00" type="ped" speedFactor="1.01" duration="267.30" waitingTime="0.90" timeLoss="27.34" traveltime="267.30">
        <walk depart="240.00" departPos="10.42" arrival="507.30" arrivalPos="19.02" duration="267.30" routeLength="335.01" timeLoss="27.34" maxSpeed="1.40" waitingTime="0.90"/>
    </personinfo>
    <personinfo id="PalengketoSTI.2" depart="240.00" type="ped" speedFactor="1.07" duration="279.30" waitingTime="1.40" timeLoss="31.23" traveltime="279.30">
        <walk depart="240.00" departPos="25.00" arrival="519.30" arrivalPos="19.02" duration="279.30" routeLength="369.14" timeLoss="31.23" maxSpeed="1.49" waitingTime="1.40"/>
    </personinfo>
    <tripinfo id="NuvalitoStaRosa.0" depart="128.70" departLane="-145507700#3_2" departPos="5.10" departPosLat="0.00" departSpeed="26.12" departDelay="0.00" arrival="519.60" arrivalLane="-92878383#0_1" arrivalPos="603.68" arrivalPosLat="-0.00" arrivalSpeed="7.71" duration="390.90" routeLength="2600.04" waitingTime="169.80" waitingCount="1" stopTime="0.00" timeLoss="194.44" rerouteNo="1" devices="tripinfo_NuvalitoStaRosa.0 routing_NuvalitoStaRosa.0" vType="car" speedFactor="0.94" vaporized=""/>
    <personinfo id="JollibeetoTarget.1" depart="120.00" type="ped" speedFactor="1.12" duration="400.70" waitingTime="2.50" timeLoss="43.66" traveltime="400.70">
        <walk depart="120.00" departPos="10.42" arrival="520.70" arrivalPos="16.04" duration="400.70" routeLength="555.05" timeLoss="43.66" maxSpeed="1.55" waitingTime="2.50"/>
    </personinfo>
    <tripinfo id="BalibagotoBiñan.0" depart="387.10" departLane="145507698_1" departPos="2.30" departPosLat="0.00" departSpeed="9.75" departDelay="0.00" arrival="534.90" arrivalLane="-553887793#0_1" arrivalPos="201.31" arrivalPosLat="0.00" arrivalSpeed="24.71" duration="147.80" routeLength="1690.81" waitingTime="19.20" waitingCount="1" stopTime="0.00" timeLoss="46.32" rerouteNo="1" devices="tripinfo_BalibagotoBiñan.0 routing_BalibagotoBiñan.0" vType="tricycle" speedFactor="0.89" vaporized=""/>
    <personinfo id="STItoSakayan.2" depart="240.00" type="ped" speedFactor="0.97" duration="314.90" waitingTime="6.60" timeLoss="37.95" traveltime="314.90">
        <walk depart="240.00" departPos="25.00" arrival="554.90" arrivalPos="27.04" duration="314.90" routeLength="373.08" timeLoss="37.95" maxSpeed="1.35" waitingTime="6.60"/>
    </personinfo>
    <tripinfo id="CalambatoBalibago.4" depart="410.80" departLane="185930141#0_2" departPos="8.10" departPosLat="0.00" departSpeed="27.78" departDelay="0.00" arrival="562.70" arrivalLane="89908334_1" arrivalPos="36.84" arrivalPosLat="0.00" arrivalSpeed="8.88" duration="151.90" routeLength="908.17" waitingTime="81.50" waitingCount="1" stopTime="0.00" timeLoss="110.54" rerouteNo="1" devices="tripinfo_CalambatoBalibago.4 routing_CalambatoBalibago.4" vType="jeep" speedFactor="1.00" vaporized=""/>
    <tripinfo id="CalambatoBiñan.0" depart="457.90" departLane="185930141#0_1" departPos="5.10" departPosLat="0.00" departSpeed="23.93" departDelay="0.00" arrival="566.30" arrivalLane="-553887793#0_1" arrivalPos="201.31" arrivalPosLat="0.00" arrivalSpeed="23.84" duration="108.40" routeLength="1507.67" waitingTime="31.30" waitingCount="1" stopTime="0.00" timeLoss="45.31" rerouteNo="1" devices="tripinfo_CalambatoBiñan.0 routing_CalambatoBiñan.0" vType="car" speedFactor="0.86" vaporized=""/>
    <tripinfo id="CalambatoNuvali.1" depart="272.50" departLane="185930141#0_2" departPos="7.20" departPosLat="0.00" departSpeed="28.12" departDelay="0.00" arrival="576.70" arrivalLane="145507700#3_1" arrivalPos="783.31" arrivalPosLat="-0.00" arrivalSpeed="28.12" duration="304.20" routeLength="2330.77" waitingTime="185.50" waitingCount="1" stopTime="0.00" timeLoss="219.70" rerouteNo="1" devices="tripinfo_CalambatoNuvali.1 routing_CalambatoNuvali.1" vType="truck" speedFactor="1.01" vaporized=""/>
    <tripinfo id="BiñantoCalamba.0" depart="348.40" departLane="553887793#0_1" departPos="5.10" departPosLat="0.00" departSpeed="27.11" departDelay="0.00" arrival="579.40" arrivalLane="-185930141#0_1" arrivalPos="428.88" arrivalPosLat="0.00" arrivalSpeed="27.01" duration="231.00" routeLength="1507.67" waitingTime="160.70" waitingCount="1" stopTime="0.00" timeLoss="175.38" rerouteNo="1" devices="tripinfo_BiñantoCalamba.0 routing_BiñantoCalamba.0" vType="car" speedFactor="0.98" vaporized=""/>
    <personinfo id="PalengketoTarget.1" depart="120.00" type="ped" speedFactor="1.03" duration="460.10" waitingTime="1.50" timeLoss="46.73" traveltime="460.10">
        <walk depart="120.00" departPos="25.00" arrival="580.10" arrivalPos="16.04" duration="460.10" routeLength="589.17" timeLoss="46.73" maxSpeed="1.43" waitingTime="1.50"/>
    </personinfo>
    <tripinfo id="CalambatoNuvali.2" depart="346.20" departLane="185930141#0_2" departPos="7.20" departPosLat="0.00" departSpeed="27.38" departDelay="0.00" arrival="581.10" arrivalLane="145507700#3_1" arrivalPos="783.31" arrivalPosLat="-0.00" arrivalSpeed="27.35" duration="234.90" routeLength="2330.77" waitingTime="95.20" waitingCount="2" stopTime="0.00" timeLoss="148.08" rerouteNo="1" devices="tripinfo_CalambatoNuvali.2 routing_CalambatoNuvali.2" vType="truck" speedFactor="0.99" vaporized=""/>
    <tripinfo id="BiñantoBalibago.1" depart="493.50" departLane="553887793#0_1" departPos="8.10" departPosLat="0.00" departSpeed="27.78" departDelay="0.00" arrival="586.50" arrivalLane="-32083237#0_1" arrivalPos="36.46" arrivalPosLat="0.00" arrivalSpeed="11.34" duration="93.00" routeLength="996.33" waitingTime="13.00" waitingCount="2" stopTime="0.00" timeLoss="53.41" rerouteNo="1" devices="tripinfo_BiñantoBalibago.1 routing_BiñantoBalibago.1" vType="jeep" speedFactor="1.00" vaporized=""/>
    <personinfo id="JollibeetoSTI.3" depart="360.00" type="ped" speedFactor="1.17" duration="229.80" waitingTime="0.90" timeLoss="23.95" traveltime="229.80">
        <walk depart="360.00" departPos="10.42" arrival="589.80" arrivalPos="19.02" duration="229.80" routeLength="335.01" timeLoss="23.95" maxSpeed="1.63" waitingTime="0.90"/>
    </personinfo>
    <tripinfo id="CalambatoBiñan.1" depart="480.60" departLane="185930141#0_1" departPos="8.10" departPosLat="0.00" departSpeed="27.78" departDelay="0.00" arrival="596.20" arrivalLane="-553887793#0_2" arrivalPos="201.31" arrivalPosLat="0.00" arrivalSpeed="27.73" duration="115.60" routeLength="1504.67" waitingTime="23.10" waitingCount="2" stopTime="0.00" timeLoss="61.37" rerouteNo="1" devices="tripinfo_CalambatoBiñan.1 routing_CalambatoBiñan.1" vType="jeep" speedFactor="1.00" vaporized=""/>
    <personinfo id="JollibeetoPalengke.4" depart="480.00" type="ped" speedFactor="1.03" duration="121.70" waitingTime="0.00" timeLoss="11.79" traveltime="121.70">
        <walk depart="480.00" departPos="10.42" arrival="601.70" arrivalPos="27.04" duration="121.70" routeLength="157.27" timeLoss="11.79" maxSpeed="1.43" waitingTime="0.00"/>
    </personinfo>
    <personinfo id="PalengketoJollibee.4" depart="480.00" type="ped" speedFactor="1.06" duration="124.10" waitingTime="0.00" timeLoss="12.44" traveltime="124.10">
        <walk depart="480.00" departPos="25.00" arrival="604.10" arrivalPos="5.21" duration="124.10" routeLength="164.52" timeLoss="12.44" maxSpeed="1.47" waitingTime="0.00"/>
    </personinfo>
    <personinfo id="STItoSakayan.3" depart="360.00" type="ped" speedFactor="0.99" duration="301.30" waitingTime="0.00" timeLoss="29.89" traveltime="301.30">
        <walk depart="360.00" departPos="25.00" arrival="661.30" arrivalPos="27.04" duration="301.30" routeLength="373.08" timeLoss="29.89" maxSpeed="1.37" waitingTime="0.00"/>
    </personinfo>
    <personinfo id="TargettoSakayan.1" depart="120.00" type="ped" speedFactor="0.87" duration="550.20" waitingTime="0.40" timeLoss="55.00" traveltime="550.20">
        <walk depart="120.00" departPos="25.00" arrival="670.20" arrivalPos="27.04" duration="550.20" routeLength="596.09" timeLoss="55.00" maxSpeed="1.20" waitingTime="0.40"/>
    </personinfo>
    <tripinfo id="CalambatoBalibago.5" depart="576.00" departLane="185930141#0_2" departPos="2.30" departPosLat="0.00" departSpeed="29.60" departDelay="0.00" arrival="673.90" arrivalLane="89908334_1" arrivalPos="36.84" arrivalPosLat="0.00" arrivalSpeed="11.18" duration="97.90" routeLength="913.97" waitingTime="39.60" waitingCount="1" stopTime="0.00" timeLoss="58.99" rerouteNo="1" devices="tripinfo_CalambatoBalibago.5 routing_CalambatoBalibago.5" vType="tricycle" speedFactor="1.07" vaporized=""/>
    <personinfo id="PalengketoSTI.3" depart="360.00" type="ped" speedFactor="0.93" duration="319.70" waitingTime="1.20" timeLoss="32.99" traveltime="319.70">
        <walk depart="360.00" departPos="25.00" arrival="679.70" arrivalPos="19.02" duration="319.70" routeLength="369.14" timeLoss="32.99" maxSpeed="1.29" waitingTime="1.20"/>
    </personinfo>
    <tripinfo id="BiñantoStaRosa.1" depart="347.60" departLane="553887793#0_2" departPos="8.10" departPosLat="0.00" departSpeed="27.78" departDelay="0.00" arrival="679.90" arrivalLane="-92878383#0_1" arrivalPos="603.68" arrivalPosLat="-0.00" arrivalSpeed="8.29" duration="332.30" routeLength="1782.95" waitingTime="162.40" waitingCount="1" stopTime="0.00" timeLoss="178.27" rerouteNo="1" devices="tripinfo_BiñantoStaRosa.1 routing_BiñantoStaRosa.1" vType="jeep" speedFactor="1.00" vaporized=""/>
    <personinfo id="JollibeetoTarget.2" depart="240.00" type="ped" speedFactor="1.02" duration="441.00" waitingTime="1.70" timeLoss="47.58" traveltime="441.00">
        <walk depart="240.00" departPos="10.42" arrival="681.00" arrivalPos="16.04" duration="441.00" routeLength="555.05" timeLoss="47.58" maxSpeed="1.41" waitingTime="1.70"/>
    </personinfo>
    <tripinfo id="StaRosatoBalibago.1" depart="313.70" departLane="92878383#0_1" departPos="8.10" departPosLat="0.00" departSpeed="8.33" departDelay="0.00" arrival="683.20" arrivalLane="-32083237#0_1" arrivalPos="36.46" arrivalPosLat="0.00" arrivalSpeed="11.43" duration="369.50" routeLength="1358.46" waitingTime="201.10" waitingCount="2" stopTime="0.00" timeLoss="236.10" rerouteNo="1" devices="tripinfo_StaRosatoBalibago.1 routing_StaRosatoBalibago.1" vType="jeep" speedFactor="1.00" vaporized=""/>
    <tripinfo id="StaRosatoBalibago.2" depart="444.60" departLane="92878383#0_1" departPos="2.30" departPosLat="0.00" departSpeed="7.55" departDelay="0.00" arrival="684.90" arrivalLane="-32083237#0_1" arrivalPos="36.46" arrivalPosLat="0.00" arrivalSpeed="12.98" duration="240.30" routeLength="1364.26" waitingTime="54.90" waitingCount="1" stopTime="0.00" timeLoss="92.41" rerouteNo="1" devices="tripinfo_StaRosatoBalibago.2 routing_StaRosatoBalibago.2" vType="tricycle" speedFactor="0.91" vaporized=""/>
    <tripinfo id="StaRosatoBalibago.3" depart="527.40" departLane="92878383#0_1" departPos="2.30" departPosLat="0.00" departSpeed="8.42" departDelay="0.00" arrival="686.20" arrivalLane="-32083237#0_1" arrivalPos="36.46" arrivalPosLat="0.00" arrivalSpeed="13.85" duration="158.80" routeLength="1364.26" waitingTime="0.00" waitingCount="0" stopTime="0.00" timeLoss="26.24" rerouteNo="1" devices="tripinfo_StaRosatoBalibago.3 routing_StaRosatoBalibago.3" vType="tricycle" speedFactor="1.01" vaporized=""/>
    <personinfo id="TargettoSakayan.2" depart="240.00" type="ped" speedFactor="1.05" duration="455.80" waitingTime="1.80" timeLoss="47.56" traveltime="455.80">
        <walk depart="240.00" departPos="25.00" arrival="695.80" arrivalPos="27.04" duration="455.80" routeLength="596.09" timeLoss="47.56" maxSpeed="1.46" waitingTime="1.80"/>
    </personinfo>
    <personinfo id="PalengketoTarget.2" depart="240.00" type="ped" speedFactor="1.03" duration="461.00" waitingTime="2.20" timeLoss="49.03" traveltime="461.00">
        <walk depart="240.00" departPos="25.00" arrival="701.00" arrivalPos="16.04" duration="461.00" routeLength="589.17" timeLoss="49.03" maxSpeed="1.43" waitingTime="2.20"/>
    </personinfo>
    <tripinfo id="StaRosatoNuvali.2" depart="511.60" departLane="92878383#0_1" departPos="5.10" departPosLat="0.00" departSpeed="9.32" departDelay="0.00" arrival="704.50" arrivalLane="145507700#3_2" arrivalPos="783.31" arrivalPosLat="0.00" arrivalSpeed="31.02" duration="192.90" routeLength="2445.86" waitingTime="11.60" waitingCount="1" stopTime="0.00" timeLoss="40.77" rerouteNo="1" devices="tripinfo_StaRosatoNuvali.2 routing_StaRosatoNuvali.2" vType="car" speedFactor="1.12" vaporized=""/>
    <tripinfo id="BiñantoNuvali.0" depart="600.40" departLane="553887793#0_1" departPos="7.20" departPosLat="0.00" departSpeed="26.81" departDelay="0.00" arrival="707.20" arrivalLane="145507700#3_1" arrivalPos="783.31" arrivalPosLat="-0.00" arrivalSpeed="26.80" duration="106.80" routeLength="2081.63" waitingTime="3.30" waitingCount="1" stopTime="0.00" timeLoss="28.06" rerouteNo="1" devices="tripinfo_BiñantoNuvali.0 routing_BiñantoNuvali.0" vType="truck" speedFactor="0.97" vaporized=""/>
    <tripinfo id="StaRosatoCalamba.3" depart="459.80" departLane="92878383#0_1" departPos="8.10" departPosLat="0.00" departSpeed="8.33" departDelay="0.00" arrival="707.90" arrivalLane="-185930141#0_1" arrivalPos="428.88" arrivalPosLat="-0.00" arrivalSpeed="27.77" duration="248.10" routeLength="1852.46" waitingTime="57.50" waitingCount="2" stopTime="0.00" timeLoss="98.73" rerouteNo="1" devices="tripinfo_StaRosatoCalamba.3 routing_StaRosatoCalamba.3" vType="jeep" speedFactor="1.00" vaporized=""/>
    <tripinfo id="StaRosatoNuvali.1" depart="481.30" departLane="92878383#0_1" departPos="7.20" departPosLat="0.00" departSpeed="8.30" departDelay="0.00" arrival="708.60" arrivalLane="145507700#3_1" arrivalPos="783.31" arrivalPosLat="0.00" arrivalSpeed="27.63" duration="227.30" routeLength="2443.76" waitingTime="31.50" waitingCount="1" stopTime="0.00" timeLoss="56.80" rerouteNo="1" devices="tripinfo_StaRosatoNuvali.1 routing_StaRosatoNuvali.1" vType="truck" speedFactor="1.00" vaporized=""/>
    <tripinfo id="NuvalitoBiñan.1" depart="559.40" departLane="-145507700#3_1" departPos="5.10" departPosLat="0.00" departSpeed="27.66" departDelay="0.00" arrival="711.40" arrivalLane="-553887793#0_2" arrivalPos="201.31" arrivalPosLat="0.00" arrivalSpeed="27.57" duration="152.00" routeLength="2093.39" waitingTime="55.50" waitingCount="2" stopTime="0.00" timeLoss="75.05" rerouteNo="1" devices="tripinfo_NuvalitoBiñan.1 routing_NuvalitoBiñan.1" vType="car" speedFactor="1.00" vaporized=""/>