<?xml version="1.0" encoding="UTF-8"?>

<!-- generated on 2026-02-21 15:33:36 by Eclipse SUMO sumo Version 1.24.0
<sumoConfiguration xmlns:xsi="http://www.w3.org/2001/XMLSchema-instance" xsi:noNamespaceSchemaLocation="http://sumo.dlr.de/xsd/sumoConfiguration.xsd">

    <input>
        <net-file value="Balibago_traci/network/balibago_baseline.net.xml"/>
        <route-files value="Balibago_traci/demand/flows_jam_traffic.rou.xml"/>
        <additional-files value="Balibago_traci/additionals/balibago.poly.xml,Balibago_traci/ additionals/balibago.add.xml"/>
    </input>

    <output>
        <tripinfo-output value="Balibago_traci/output_NoDRL_baseline/SD_NoDRL_baseline_jam_trips.xml"/>
        <statistic-output value="Balibago_traci/output_NoDRL_baseline/SD_NoDRL_baseline_jam_stats.xml"/>
    </output>

    <time>
        <begin value="0"/>
        <end value="10800"/>
        <step-length value="0.1"/>
    </time>

    <processing>
        <lateral-resolution value="0.1"/>
        <collision.action value="none"/>
        <collision.check-junctions value="false"/>
        <collision.mingap-factor value="0"/>
    </processing>

    <report>
        <no-warnings value="true"/>
    </report>

    <traci_server>
        <remote-port value="57717"/>
    </traci_server>

    <gui_only>
        <delay value="0"/>
    </gui_only>

</sumoConfiguration>
-->

<tripinfos xmlns:xsi="http://www.w3.org/2001/XMLSchema-instance" xsi:noNamespaceSchemaLocation="http://sumo.dlr.de/xsd/tripinfo_file.xsd">
    <tripinfo id="BalibagotoNuvali.0" depart="9.20" departLane="777619905_1" departPos="5.10" departPosLat="0.00" departSpeed="0.00" departDelay="0.00" arrival="87.70" arrivalLane="145507700#3_1" arrivalPos="783.31" arrivalPosLat="-0.00" arrivalSpeed="27.73" duration="78.50" routeLength="1312.87" waitingTime="0.00" waitingCount="0" stopTime="0.00" timeLoss="25.44" rerouteNo="1" devices="tripinfo_BalibagotoNuvali.0 routing_BalibagotoNuvali.0" vType="bus" speedFactor="1.00" vaporized=""/>
    <tripinfo id="NuvalitoBiñan.0" depart="0.70" departLane="-145507700#3_1" departPos="2.30" departPosLat="0.00" departSpeed="25.95" departDelay="0.00" arrival="91.10" arrivalLane="-553887793#0_2" arrivalPos="201.31" arrivalPosLat="0.00" arrivalSpeed="25.94" duration="90.40" routeLength="2096.19" waitingTime="0.00" waitingCount="0" stopTime="0.00" timeLoss="8.27" rerouteNo="1" devices="tripinfo_NuvalitoBiñan.0 routing_NuvalitoBiñan.0" vType="tricycle" speedFactor="0.93" vaporized=""/>
    <personinfo id="JollibeetoPalengke.0" depart="0.00" type="ped" speedFactor="1.06" duration="118.80" waitingTime="0.00" timeLoss="11.97" traveltime="118.80">
        <walk depart="0.00" departPos="10.42" arrival="118.80" arrivalPos="27.04" duration="118.80" routeLength="157.27" timeLoss="11.97" maxSpeed="1.47" waitingTime="0.00"/>
    </personinfo>
    <personinfo id="PalengketoJollibee.0" depart="0.00" type="ped" speedFactor="1.07" duration="123.10" waitingTime="0.00" timeLoss="12.41" traveltime="123.10">
        <walk depart="0.00" departPos="25.00" arrival="123.10" arrivalPos="5.21" duration="123.10" routeLength="164.52" timeLoss="12.41" maxSpeed="1.49" waitingTime="0.00"/>
    </personinfo>
    <tripinfo id="NuvalitoBalibago.0" depart="8.30" departLane="-145507700#3_1" departPos="2.30" departPosLat="0.00" departSpeed="32.64" departDelay="0.00" arrival="128.60" arrivalLane="32083201#1_1" arrivalPos="58.53" arrivalPosLat="0.00" arrivalSpeed="16.29" duration="120.30" routeLength="2060.89" waitingTime="0.00" waitingCount="0" stopTime="0.00" timeLoss="30.10" rerouteNo="1" devices="tripinfo_NuvalitoBalibago.0 routing_NuvalitoBalibago.0" vType="tricycle" speedFactor="1.17" vaporized=""/>
    <personinfo id="PalengketoJollibee.1" depart="48.00" type="ped" speedFactor="0.94" duration="140.40" waitingTime="0.00" timeLoss="14.01" traveltime="140.40">
        <walk depart="48.00" departPos="25.00" arrival="188.40" arrivalPos="5.21" duration="140.40" routeLength="164.52" timeLoss="14.01" maxSpeed="1.30" waitingTime="0.00"/>
    </personinfo>
    <personinfo id="JollibeetoPalengke.1" depart="48.00" type="ped" speedFactor="0.94" duration="140.90" waitingTime="6.80" timeLoss="20.22" traveltime="140.90">
        <walk depart="48.00" departPos="10.42" arrival="188.90" arrivalPos="27.04" duration="140.90" routeLength="157.27" timeLoss="20.22" maxSpeed="1.30" waitingTime="6.80"/>
    </personinfo>
    <tripinfo id="CalambatoBalibago.0" depart="150.70" departLane="185930141#0_2" departPos="2.30" departPosLat="0.00" departSpeed="21.61" departDelay="0.00" arrival="218.10" arrivalLane="89908334_1" arrivalPos="36.84" arrivalPosLat="0.00" arrivalSpeed="10.87" duration="67.40" routeLength="913.97" waitingTime="0.00" waitingCount="0" stopTime="0.00" timeLoss="14.06" rerouteNo="1" devices="tripinfo_CalambatoBalibago.0 routing_CalambatoBalibago.0" vType="tricycle" speedFactor="0.78" vaporized=""/>
    <tripinfo id="NuvalitoCalamba.0" depart="45.30" departLane="-145507700#3_1" departPos="5.10" departPosLat="0.00" departSpeed="27.23" departDelay="0.00" arrival="218.70" arrivalLane="-185930141#0_1" arrivalPos="428.88" arrivalPosLat="-0.00" arrivalSpeed="27.23" duration="173.40" routeLength="2321.76" waitingTime="58.90" waitingCount="2" stopTime="0.00" timeLoss="86.88" rerouteNo="1" devices="tripinfo_NuvalitoCalamba.0 routing_NuvalitoCalamba.0" vType="car" speedFactor="0.98" vaporized=""/>
    <personinfo id="JollibeetoPalengke.2" depart="96.00" type="ped" speedFactor="1.01" duration="124.60" waitingTime="0.00" timeLoss="12.53" traveltime="124.60">
        <walk depart="96.00" departPos="10.42" arrival="220.60" arrivalPos="27.04" duration="124.60" routeLength="157.27" timeLoss="12.53" maxSpeed="1.40" waitingTime="0.00"/>
    </personinfo>
    <tripinfo id="BalibagotoCalamba.0" depart="40.40" departLane="145507698_1" departPos="2.30" departPosLat="0.00" departSpeed="0.38" departDelay="0.00" arrival="220.70" arrivalLane="-185930141#0_1" arrivalPos="428.88" arrivalPosLat="0.00" arrivalSpeed="28.00" duration="180.30" routeLength="1531.99" waitingTime="66.90" waitingCount="2" stopTime="0.00" timeLoss="96.21" rerouteNo="1" devices="tripinfo_BalibagotoCalamba.0 routing_BalibagotoCalamba.0" vType="tricycle" speedFactor="1.01" vaporized=""/>
    <tripinfo id="CalambatoBiñan.0" depart="32.70" departLane="185930141#0_1" departPos="8.10" departPosLat="0.00" departSpeed="27.78" departDelay="0.00" arrival="223.50" arrivalLane="-553887793#0_1" arrivalPos="201.31" arrivalPosLat="0.00" arrivalSpeed="27.77" duration="190.80" routeLength="1504.67" waitingTime="110.50" waitingCount="1" stopTime="0.00" timeLoss="136.62" rerouteNo="1" devices="tripinfo_CalambatoBiñan.0 routing_CalambatoBiñan.0" vType="jeep" speedFactor="1.00" vaporized=""/>
    <tripinfo id="BalibagotoBiñan.0" depart="37.20" departLane="145507698_1" departPos="7.55" departPosLat="0.00" departSpeed="0.00" departDelay="0.00" arrival="224.20" arrivalLane="-553887793#0_2" arrivalPos="201.31" arrivalPosLat="0.00" arrivalSpeed="27.75" duration="187.00" routeLength="1682.41" waitingTime="42.20" waitingCount="1" stopTime="0.00" timeLoss="96.78" rerouteNo="1" devices="tripinfo_BalibagotoBiñan.0 routing_BalibagotoBiñan.0" vType="jeep" speedFactor="1.00" vaporized=""/>
    <tripinfo id="BalibagotoCalamba.1" depart="80.90" departLane="145507698_1" departPos="7.55" departPosLat="0.00" departSpeed="0.00" departDelay="0.00" arrival="227.30" arrivalLane="-185930141#0_2" arrivalPos="428.88" arrivalPosLat="0.00" arrivalSpeed="27.77" duration="146.40" routeLength="1523.59" waitingTime="12.80" waitingCount="1" stopTime="0.00" timeLoss="62.15" rerouteNo="1" devices="tripinfo_BalibagotoCalamba.1 routing_BalibagotoCalamba.1" vType="jeep" speedFactor="1.00" vaporized=""/>
    <personinfo id="PalengketoJollibee.2" depart="96.00" type="ped" speedFactor="0.98" duration="134.20" waitingTime="0.00" timeLoss="13.41" traveltime="134.20">
        <walk depart="96.00" departPos="25.00" arrival="230.20" arrivalPos="5.21" duration="134.20" routeLength="164.52" timeLoss="13.41" maxSpeed="1.36" waitingTime="0.00"/>
    </personinfo>
    <tripinfo id="NuvalitoStaRosa.0" depart="56.20" departLane="-145507700#3_2" departPos="2.30" departPosLat="0.00" departSpeed="29.07" departDelay="0.00" arrival="245.20" arrivalLane="-92878383#0_1" arrivalPos="603.68" arrivalPosLat="-0.00" arrivalSpeed="8.61" duration="189.00" routeLength="2602.84" waitingTime="0.00" waitingCount="0" stopTime="0.00" timeLoss="12.34" rerouteNo="1" devices="tripinfo_NuvalitoStaRosa.0 routing_NuvalitoStaRosa.0" vType="motorcycle" speedFactor="1.05" vaporized=""/>
    <tripinfo id="BiñantoCalamba.0" depart="21.20" departLane="553887793#0_1" departPos="2.30" departPosLat="0.00" departSpeed="30.40" departDelay="0.00" arrival="254.60" arrivalLane="-185930141#0_1" arrivalPos="428.88" arrivalPosLat="0.00" arrivalSpeed="30.39" duration="233.40" routeLength="1510.47" waitingTime="176.80" waitingCount="1" stopTime="0.00" timeLoss="183.65" rerouteNo="1" devices="tripinfo_BiñantoCalamba.0 routing_BiñantoCalamba.0" vType="motorcycle" speedFactor="1.09" vaporized=""/>
    <personinfo id="JollibeetoPalengke.3" depart="144.00" type="ped" speedFactor="1.08" duration="116.00" waitingTime="0.00" timeLoss="11.41" traveltime="116.00">
        <walk depart="144.00" departPos="10.42" arrival="260.00" arrivalPos="27.04" duration="116.00" routeLength="157.27" timeLoss="11.41" maxSpeed="1.50" waitingTime="0.00"/>
    </personinfo>
    <tripinfo id="CalambatoNuvali.0" depart="49.20" departLane="185930141#0_2" departPos="5.10" departPosLat="0.00" departSpeed="26.95" departDelay="0.00" arrival="261.00" arrivalLane="145507700#3_1" arrivalPos="783.31" arrivalPosLat="-0.00" arrivalSpeed="26.89" duration="211.80" routeLength="2332.87" waitingTime="100.50" waitingCount="2" stopTime="0.00" timeLoss="123.57" rerouteNo="1" devices="tripinfo_CalambatoNuvali.0 routing_CalambatoNuvali.0" vType="car" speedFactor="0.97" vaporized=""/>
    <tripinfo id="NuvalitoStaRosa.1" depart="76.20" departLane="-145507700#3_1" departPos="5.10" departPosLat="0.00" departSpeed="29.17" departDelay="0.00" arrival="265.60" arrivalLane="-92878383#0_1" arrivalPos="603.68" arrivalPosLat="-0.00" arrivalSpeed="8.65" duration="189.40" routeLength="2600.04" waitingTime="0.00" waitingCount="0" stopTime="0.00" timeLoss="13.47" rerouteNo="1" devices="tripinfo_NuvalitoStaRosa.1 routing_NuvalitoStaRosa.1" vType="car" speedFactor="1.05" vaporized=""/>
    <personinfo id="PalengketoJollibee.3" depart="144.00" type="ped" speedFactor="1.04" duration="127.50" waitingTime="1.50" timeLoss="13.91" traveltime="127.50">
        <walk depart="144.00" departPos="25.00" arrival="271.50" arrivalPos="5.21" duration="127.50" routeLength="164.52" timeLoss="13.91" maxSpeed="1.45" waitingTime="1.50"/>
    </personinfo>
    <personinfo id="JollibeetoSTI.0" depart="0.00" type="ped" speedFactor="0.98" duration="273.30" waitingTime="0.80" timeLoss="28.39" traveltime="273.30">
        <walk depart="0.00" departPos="10.42" arrival="273.30" arrivalPos="19.02" duration="273.30" routeLength="335.01" timeLoss="28.39" maxSpeed="1.37" waitingTime="0.80"/>
    </personinfo>
    <tripinfo id="BalibagotoStaRosa.0" depart="55.40" departLane="145507698_1" departPos="7.55" departPosLat="0.00" departSpeed="0.00" departDelay="0.00" arrival="274.70" arrivalLane="-92878383#0_1" arrivalPos="603.68" arrivalPosLat="-0.00" arrivalSpeed="8.28" duration="219.30" routeLength="1983.33" waitingTime="0.00" waitingCount="0" stopTime="0.00" timeLoss="30.50" rerouteNo="1" devices="tripinfo_BalibagotoStaRosa.0 routing_BalibagotoStaRosa.0" vType="jeep" speedFactor="1.00" vaporized=""/>
    <tripinfo id="BiñantoBalibago.0" depart="52.30" departLane="553887793#0_1" departPos="2.30" departPosLat="0.00" departSpeed="22.58" departDelay="0.00" arrival="281.50" arrivalLane="-32083237#0_1" arrivalPos="36.46" arrivalPosLat="0.00" arrivalSpeed="15.33" duration="229.20" routeLength="1002.13" waitingTime="160.30" waitingCount="2" stopTime="0.00" timeLoss="180.19" rerouteNo="1" devices="tripinfo_BiñantoBalibago.0 routing_BiñantoBalibago.0" vType="tricycle" speedFactor="0.81" vaporized=""/>
    <tripinfo id="BiñantoBalibago.1" depart="90.20" departLane="553887793#0_1" departPos="12.10" departPosLat="0.00" departSpeed="27.78" departDelay="0.00" arrival="288.40" arrivalLane="-32083237#0_1" arrivalPos="36.46" arrivalPosLat="0.00" arrivalSpeed="11.26" duration="198.20" routeLength="992.33" waitingTime="115.70" waitingCount="2" stopTime="0.00" timeLoss="158.81" rerouteNo="1" devices="tripinfo_BiñantoBalibago.1 routing_BiñantoBalibago.1" vType="bus" speedFactor="1.00" vaporized=""/>
    <personinfo id="STItoSakayan.0" depart="0.00" type="ped" speedFactor="1.00" duration="298.40" waitingTime="0.00" timeLoss="29.38" traveltime="298.40">
        <walk depart="0.00" departPos="25.00" arrival="298.40" arrivalPos="27.04" duration="298.40" routeLength="373.08" timeLoss="29.38" maxSpeed="1.39" waitingTime="0.00"/>
    </personinfo>
    <tripinfo id="BiñantoNuvali.0" depart="70.30" departLane="553887793#0_1" departPos="5.10" departPosLat="0.00" departSpeed="24.94" departDelay="0.00" arrival="303.20" arrivalLane="145507700#3_1" arrivalPos="783.31" arrivalPosLat="-0.00" arrivalSpeed="24.87" duration="232.90" routeLength="2083.73" waitingTime="124.70" waitingCount="2" stopTime="0.00" timeLoss="148.15" rerouteNo="1" devices="tripinfo_BiñantoNuvali.0 routing_BiñantoNuvali.0" vType="car" speedFactor="0.90" vaporized=""/>
    <tripinfo id="BalibagotoBiñan.1" depart="185.50" departLane="145507698_1" departPos="7.55" departPosLat="0.00" departSpeed="0.00" departDelay="0.00" arrival="313.40" arrivalLane="-553887793#0_2" arrivalPos="201.31" arrivalPosLat="0.00" arrivalSpeed="27.72" duration="127.90" routeLength="1682.41" waitingTime="0.00" waitingCount="0" stopTime="0.00" timeLoss="37.85" rerouteNo="1" devices="tripinfo_BalibagotoBiñan.1 routing_BalibagotoBiñan.1" vType="jeep" speedFactor="1.00" vaporized=""/>
    <personinfo id="JollibeetoPalengke.4" depart="192.00" type="ped" speedFactor="1.03" duration="122.00" waitingTime="0.00" timeLoss="12.09" traveltime="122.00">
        <walk depart="192.00" departPos="10.42" arrival="314.00" arrivalPos="27.04" duration="122.00" routeLength="157.27" timeLoss="12.09" maxSpeed="1.43" waitingTime="0.00"/>
    </personinfo>
    <tripinfo id="NuvalitoStaRosa.2" depart="111.10" departLane="-145507700#3_1" departPos="7.20" departPosLat="0.00" departSpeed="27.40" departDelay="0.00" arrival="315.80" arrivalLane="-92878383#0_1" arrivalPos="603.68" arrivalPosLat="-0.00" arrivalSpeed="8.19" duration="204.70" routeLength="2597.94" waitingTime="0.00" waitingCount="0" stopTime="0.00" timeLoss="17.58" rerouteNo="1" devices="tripinfo_NuvalitoStaRosa.2 routing_NuvalitoStaRosa.2" vType="truck" speedFactor="0.99" vaporized=""/>
    <personinfo id="JollibeetoSTI.1" depart="48.00" type="ped" speedFactor="1.03" duration="268.80" waitingTime="1.50" timeLoss="35.18" traveltime="268.80">
        <walk depart="48.00" departPos="10.42" arrival="316.80" arrivalPos="19.02" duration="268.80" routeLength="335.01" timeLoss="35.18" maxSpeed="1.43" waitingTime="1.50"/>
    </personinfo>
    <personinfo id="PalengketoSTI.1" depart="48.00" type="ped" speedFactor="1.10" duration="273.10" waitingTime="1.20" timeLoss="30.47" traveltime="273.10">
        <walk depart="48.00" departPos="25.00" arrival="321.10" arrivalPos="19.02" duration="273.10" routeLength="369.14" timeLoss="30.47" maxSpeed="1.52" waitingTime="1.20"/>
    </personinfo>
    <tripinfo id="CalambatoBalibago.1" depart="194.30" departLane="185930141#0_2" departPos="12.10" departPosLat="0.00" departSpeed="27.78" departDelay="0.00" arrival="322.10" arrivalLane="89908334_1" arrivalPos="36.84" arrivalPosLat="0.00" arrivalSpeed="9.05" duration="127.80" routeLength="904.17" waitingTime="57.50" waitingCount="1" stopTime="0.00" timeLoss="86.69" rerouteNo="1" devices="tripinfo_CalambatoBalibago.1 routing_CalambatoBalibago.1" vType="bus" speedFactor="1.00" vaporized=""/>
    <tripinfo id="CalambatoBalibago.2" depart="238.20" departLane="185930141#0_2" departPos="2.30" departPosLat="0.00" departSpeed="31.50" departDelay="0.00" arrival="329.40" arrivalLane="89908334_1" arrivalPos="36.84" arrivalPosLat="0.00" arrivalSpeed="10.92" duration="91.20" routeLength="913.97" waitingTime="16.50" waitingCount="2" stopTime="0.00" timeLoss="54.59" rerouteNo="1" devices="tripinfo_CalambatoBalibago.2 routing_CalambatoBalibago.2" vType="tricycle" speedFactor="1.13" vaporized=""/>
    <tripinfo id="CalambatoBalibago.3" depart="267.10" departLane="185930141#0_2" departPos="8.10" departPosLat="0.00" departSpeed="27.78" departDelay="0.00" arrival="332.50" arrivalLane="89908334_1" arrivalPos="36.84" arrivalPosLat="0.00" arrivalSpeed="8.83" duration="65.40" routeLength="908.17" waitingTime="0.00" waitingCount="0" stopTime="0.00" timeLoss="24.06" rerouteNo="1" devices="tripinfo_CalambatoBalibago.3 routing_CalambatoBalibago.3" vType="jeep" speedFactor="1.00" vaporized=""/>
    <personinfo id="PalengketoJollibee.4" depart="192.00" type="ped" speedFactor="0.98" duration="146.20" waitingTime="12.20" timeLoss="25.50" traveltime="146.20">
        <walk depart="192.00" departPos="25.00" arrival="338.20" arrivalPos="5.21" duration="146.20" routeLength="164.52" timeLoss="25.50" maxSpeed="1.36" waitingTime="12.20"/>
    </personinfo>
    <tripinfo id="BiñantoCalamba.1" depart="178.20" departLane="553887793#0_1" departPos="2.30" departPosLat="0.00" departSpeed="20.90" departDelay="0.00" arrival="340.90" arrivalLane="-185930141#0_1" arrivalPos="428.88" arrivalPosLat="-0.00" arrivalSpeed="20.70" duration="162.70" routeLength="1510.47" waitingTime="68.70" waitingCount="2" stopTime="0.00" timeLoss="90.43" rerouteNo="1" devices="tripinfo_BiñantoCalamba.1 routing_BiñantoCalamba.1" vType="motorcycle" speedFactor="0.75" vaporized=""/>
    <personinfo id="STItoSakayan.1" depart="48.00" type="ped" speedFactor="0.99" duration="301.20" waitingTime="0.00" timeLoss="30.28" traveltime="301.20">
        <walk depart="48.00" departPos="25.00" arrival="349.20" arrivalPos="27.04" duration="301.20" routeLength="373.08" timeLoss="30.28" maxSpeed="1.38" waitingTime="0.00"/>
    </personinfo>
    <tripinfo id="BalibagotoNuvali.1" depart="289.70" departLane="777619905_1" departPos="2.30" departPosLat="0.00" departSpeed="5.50" departDelay="0.00" arrival="350.80" arrivalLane="145507700#3_2" arrivalPos="783.31" arrivalPosLat="0.00" arrivalSpeed="29.69" duration="61.10" routeLength="1315.67" waitingTime="0.00" waitingCount="0" stopTime="0.00" timeLoss="11.30" rerouteNo="1" devices="tripinfo_BalibagotoNuvali.1 routing_BalibagotoNuvali.1" vType="tricycle" speedFactor="1.07" vaporized=""/>
    <tripinfo id="StaRosatoBiñan.0" depart="38.20" departLane="92878383#0_1" departPos="7.20" departPosLat="0.00" departSpeed="9.30" departDelay="0.00" arrival="351.50" arrivalLane="-553887793#0_1" arrivalPos="201.31" arrivalPosLat="-0.00" arrivalSpeed="31.02" duration="313.30" routeLength="1605.62" waitingTime="171.50" waitingCount="1" stopTime="0.00" timeLoss="187.55" rerouteNo="1" devices="tripinfo_StaRosatoBiñan.0 routing_StaRosatoBiñan.0" vType="truck" speedFactor="1.12" vaporized=""/>
    <tripinfo id="StaRosatoBiñan.1" depart="116.80" departLane="92878383#0_1" departPos="7.20" departPosLat="0.00" departSpeed="5.33" departDelay="0.80" arrival="354.90" arrivalLane="-553887793#0_1" arrivalPos="201.31" arrivalPosLat="-0.00" arrivalSpeed="27.68" duration="238.10" routeLength="1605.62" waitingTime="79.20" waitingCount="1" stopTime="0.00" timeLoss="97.31" rerouteNo="1" devices="tripinfo_StaRosatoBiñan.1 routing_StaRosatoBiñan.1" vType="truck" speedFactor="1.00" vaporized=""/>
    <tripinfo id="StaRosatoCalamba.0" depart="77.50" departLane="92878383#0_1" departPos="2.30" departPosLat="0.00" departSpeed="6.20" departDelay="0.00" arrival="361.80" arrivalLane="-185930141#0_2" arrivalPos="428.88" arrivalPosLat="0.00" arrivalSpeed="28.73" duration="284.30" routeLength="1858.26" waitingTime="117.40" waitingCount="1" stopTime="0.00" timeLoss="139.27" rerouteNo="1" devices="tripinfo_StaRosatoCalamba.0 routing_StaRosatoCalamba.0" vType="motorcycle" speedFactor="1.03" vaporized=""/>
    <tripinfo id="StaRosatoCalamba.1" depart="93.90" departLane="92878383#0_1" departPos="2.30" departPosLat="0.00" departSpeed="8.24" departDelay="0.00" arrival="362.90" arrivalLane="-185930141#0_2" arrivalPos="428.88" arrivalPosLat="0.00" arrivalSpeed="27.36" duration="269.00" routeLength="1858.26" waitingTime="98.90" waitingCount="1" stopTime="0.00" timeLoss="117.32" rerouteNo="1" devices="tripinfo_StaRosatoCalamba.1 routing_StaRosatoCalamba.1" vType="motorcycle" speedFactor="0.99" vaporized=""/>
    <tripinfo id="BiñantoStaRosa.0" depart="24.20" departLane="553887793#0_2" departPos="8.10" departPosLat="0.00" departSpeed="27.78" departDelay="0.00" arrival="364.10" arrivalLane="-92878383#0_1" arrivalPos="603.68" arrivalPosLat="-0.00" arrivalSpeed="8.31" duration="339.90" routeLength="1782.95" waitingTime="170.20" waitingCount="1" stopTime="0.00" timeLoss="185.82" rerouteNo="1" devices="tripinfo_BiñantoStaRosa.0 routing_BiñantoStaRosa.0" vType="jeep" speedFactor="1.00" vaporized=""/>
    <personinfo id="PalengketoSTI.0" depart="0.00" type="ped" speedFactor="0.81" duration="364.80" waitingTime="1.20" timeLoss="37.20" traveltime="364.80">
        <walk depart="0.00" departPos="25.00" arrival="364.80" arrivalPos="19.02" duration="364.80" routeLength="369.14" timeLoss="37.20" maxSpeed="1.13" waitingTime="1.20"/>
    </personinfo>
    <personinfo id="JollibeetoSTI.2" depart="96.00" type="ped" speedFactor="0.98" duration="273.90" waitingTime="0.80" timeLoss="28.24" traveltime="273.90">
        <walk depart="96.00" departPos="10.42" arrival="369.90" arrivalPos="19.02" duration="273.90" routeLength="335.01" timeLoss="28.24" maxSpeed="1.36" waitingTime="0.80"/>
    </personinfo>
    <personinfo id="PalengketoSTI.2" depart="96.00" type="ped" speedFactor="1.08" duration="276.20" waitingTime="1.20" timeLoss="30.02" traveltime="276.20">
        <walk depart="96.00" departPos="25.00" arrival="372.20" arrivalPos="19.02" duration="276.20" routeLength="369.14" timeLoss="30.02" maxSpeed="1.50" waitingTime="1.20"/>
    </personinfo>
    <tripinfo id="StaRosatoCalamba.3" depart="216.90" departLane="92878383#0_1" departPos="5.10" departPosLat="0.00" departSpeed="9.33" departDelay="0.00" arrival="375.20" arrivalLane="-185930141#0_1" arrivalPos="428.88" arrivalPosLat="-0.00" arrivalSpeed="31.06" duration="158.30" routeLength="1855.46" waitingTime="0.00" waitingCount="0" stopTime="0.00" timeLoss="24.57" rerouteNo="1" devices="tripinfo_StaRosatoCalamba.3 routing_StaRosatoCalamba.3" vType="car" speedFactor="1.12" vaporized=""/>
    <tripinfo id="BalibagotoCalamba.2" depart="277.20" departLane="145507698_1" departPos="2.30" departPosLat="0.00" departSpeed="9.75" departDelay="0.00" arrival="377.70" arrivalLane="-185930141#0_2" arrivalPos="428.88" arrivalPosLat="0.00" arrivalSpeed="27.15" duration="100.50" routeLength="1531.99" waitingTime="0.00" waitingCount="0" stopTime="0.00" timeLoss="13.87" rerouteNo="1" devices="tripinfo_BalibagotoCalamba.2 routing_BalibagotoCalamba.2" vType="tricycle" speedFactor="0.98" vaporized=""/>
    <tripinfo id="StaRosatoBalibago.2" depart="78.30" departLane="92878383#0_1" departPos="2.30" departPosLat="0.00" departSpeed="2.29" departDelay="0.40" arrival="377.80" arrivalLane="-32083237#0_1" arrivalPos="36.46" arrivalPosLat="0.00" arrivalSpeed="14.86" duration="299.50" routeLength="1364.26" waitingTime="130.30" waitingCount="3" stopTime="0.00" timeLoss="159.36" rerouteNo="1" devices="tripinfo_StaRosatoBalibago.2 routing_StaRosatoBalibago.2" vType="tricycle" speedFactor="0.96" vaporized=""/>
    <tripinfo id="StaRosatoCalamba.2" depart="94.90" departLane="92878383#0_1" departPos="5.10" departPosLat="0.00" departSpeed="2.77" departDelay="0.20" arrival="380.40" arrivalLane="-185930141#0_2" arrivalPos="428.88" arrivalPosLat="0.00" arrivalSpeed="28.60" duration="285.50" routeLength="1855.46" waitingTime="103.50" waitingCount="2" stopTime="0.00" timeLoss="140.60" rerouteNo="1" devices="tripinfo_StaRosatoCalamba.2 routing_StaRosatoCalamba.2" vType="car" speedFactor="1.03" vaporized=""/>
    <personinfo id="PalengketoJollibee.5" depart="240.00" type="ped" speedFactor="0.96" duration="140.80" waitingTime="3.00" timeLoss="16.94" traveltime="140.80">
        <walk depart="240.00" departPos="25.00" arrival="380.80" arrivalPos="5.21" duration="140.80" routeLength="164.52" timeLoss="16.94" maxSpeed="1.33" waitingTime="3.00"/>
    </personinfo>
    <personinfo id="STItoSakayan.2" depart="96.00" type="ped" speedFactor="1.05" duration="287.10" waitingTime="1.30" timeLoss="30.76" traveltime="287.10">
        <walk depart="96.00" departPos="25.00" arrival="383.10" arrivalPos="27.04" duration="287.10" routeLength="373.08" timeLoss="30.76" maxSpeed="1.46" waitingTime="1.30"/>
    </personinfo>
    <personinfo id="JollibeetoPalengke.5" depart="240.00" type="ped" speedFactor="0.83" duration="151.70" waitingTime="0.00" timeLoss="15.43" traveltime="151.70">
        <walk depart="240.00" departPos="10.42" arrival="391.70" arrivalPos="27.04" duration="151.70" routeLength="157.27" timeLoss="15.43" maxSpeed="1.15" waitingTime="0.00"/>
    </personinfo>
    <tripinfo id="NuvalitoBiñan.1" depart="271.60" departLane="-145507700#3_1" departPos="5.10" departPosLat="0.00" departSpeed="30.39" departDelay="0.00" arrival="394.30" arrivalLane="-553887793#0_2" arrivalPos="201.31" arrivalPosLat="0.00" arrivalSpeed="30.31" duration="122.70" routeLength="2093.39" waitingTime="36.30" waitingCount="1" stopTime="0.00" timeLoss="52.62" rerouteNo="1" devices="tripinfo_NuvalitoBiñan.1 routing_NuvalitoBiñan.1" vType="car" speedFactor="1.09" vaporized=""/>
    <tripinfo id="NuvalitoBiñan.2" depart="309.60" departLane="-145507700#3_2" departPos="2.30" departPosLat="0.00" departSpeed="30.57" departDelay="0.00" arrival="397.10" arrivalLane="-553887793#0_2" arrivalPos="201.31" arrivalPosLat="0.00" arrivalSpeed="30.49" duration="87.50" routeLength="2096.19" waitingTime="0.00" waitingCount="0" stopTime="0.00" timeLoss="17.76" rerouteNo="1" devices="tripinfo_NuvalitoBiñan.2 routing_NuvalitoBiñan.2" vType="tricycle" speedFactor="1.10" vaporized=""/>
    <tripinfo id="StaRosatoNuvali.0" depart="193.30" departLane="92878383#0_1" departPos="8.10" departPosLat="0.00" departSpeed="8.33" departDelay="0.00" arrival="401.30" arrivalLane="145507700#3_1" arrivalPos="783.31" arrivalPosLat="0.00" arrivalSpeed="27.75" duration="208.00" routeLength="2442.86" waitingTime="7.60" waitingCount="1" stopTime="0.00" timeLoss="38.27" rerouteNo="1" devices="tripinfo_StaRosatoNuvali.0 routing_StaRosatoNuvali.0" vType="jeep" speedFactor="1.00" vaporized=""/>
    <personinfo id="TargettoSakayan.0" depart="0.00" type="ped" speedFactor="1.18" duration="405.90" waitingTime="1.10" timeLoss="41.63" traveltime="405.90">
        <walk depart="0.00" departPos="25.00" arrival="405.90" arrivalPos="27.04" duration="405.90" routeLength="596.09" timeLoss="41.63" maxSpeed="1.64" waitingTime="1.10"/>
    </personinfo>
    <personinfo id="JollibeetoPalengke.6" depart="288.00" type="ped" speedFactor="1.05" duration="120.90" waitingTime="0.00" timeLoss="12.62" traveltime="120.90">
        <walk depart="288.00" departPos="10.42" arrival="408.90" arrivalPos="27.04" duration="120.90" routeLength="157.27" timeLoss="12.62" maxSpeed="1.45" waitingTime="0.00"/>
    </personinfo>
    <tripinfo id="StaRosatoBalibago.0" depart="5.30" departLane="92878383#0_1" departPos="2.30" departPosLat="0.00" departSpeed="8.33" departDelay="0.00" arrival="409.20" arrivalLane="-32083237#0_1" arrivalPos="36.46" arrivalPosLat="0.00" arrivalSpeed="14.93" duration="403.90" routeLength="1364.26" waitingTime="235.50" waitingCount="5" stopTime="0.00" timeLoss="269.83" rerouteNo="1" devices="tripinfo_StaRosatoBalibago.0 routing_StaRosatoBalibago.0" vType="tricycle" speedFactor="1.00" vaporized=""/>
    <personinfo id="JollibeetoSTI.3" depart="144.00" type="ped" speedFactor="1.01" duration="266.40" waitingTime="0.80" timeLoss="26.94" traveltime="266.40">
        <walk depart="144.00" departPos="10.42" arrival="410.40" arrivalPos="19.02" duration="266.40" routeLength="335.01" timeLoss="26.94" maxSpeed="1.40" waitingTime="0.80"/>
    </personinfo>
    <personinfo id="PalengketoJollibee.6" depart="288.00" type="ped" speedFactor="1.06" duration="124.90" waitingTime="0.30" timeLoss="12.84" traveltime="124.90">
        <walk depart="288.00" departPos="25.00" arrival="412.90" arrivalPos="5.21" duration="124.90" routeLength="164.52" timeLoss="12.84" maxSpeed="1.47" waitingTime="0.30"/>
    </personinfo>
    <tripinfo id="BalibagotoNuvali.2" depart="337.00" departLane="777619905_1" departPos="5.10" departPosLat="0.00" departSpeed="0.00" departDelay="0.00" arrival="414.20" arrivalLane="145507700#3_1" arrivalPos="783.31" arrivalPosLat="-0.00" arrivalSpeed="27.74" duration="77.20" routeLength="1312.87" waitingTime="0.00" waitingCount="0" stopTime="0.00" timeLoss="24.06" rerouteNo="1" devices="tripinfo_BalibagotoNuvali.2 routing_BalibagotoNuvali.2" vType="jeep" speedFactor="1.00" vaporized=""/>
    <tripinfo id="BiñantoStaRosa.1" depart="250.00" departLane="553887793#0_2" departPos="5.10" departPosLat="0.00" departSpeed="26.77" departDelay="0.00" arrival="417.80" arrivalLane="-92878383#0_1" arrivalPos="603.68" arrivalPosLat="-0.00" arrivalSpeed="7.90" duration="167.80" routeLength="1785.95" waitingTime="2.20" waitingCount="1" stopTime="0.00" timeLoss="7.82" rerouteNo="1" devices="tripinfo_BiñantoStaRosa.1 routing_BiñantoStaRosa.1" vType="car" speedFactor="0.96" vaporized=""/>