<?xml version="1.0" encoding="UTF-8"?>

<!-- generated on 2026-02-22 21:39:08 by Eclipse SUMO sumo Version 1.24.0
<sumoConfiguration xmlns:xsi="http://www.w3.org/2001/XMLSchema-instance" xsi:noNamespaceSchemaLocation="http://sumo.dlr.de/xsd/sumoConfiguration.xsd">

    <input>
        <net-file value="Balibago_traci/network/balibago_baseline.net.xml"/>
        <route-files value="Balibago_traci/demand/flows_jam_traffic.rou.xml"/>
        <additional-files value="Balibago_traci/additionals/balibago.poly.xml,Balibago_traci/ additionals/balibago.add.xml"/>
    </input>

    <output>
        <tripinfo-output value="Balibago_traci/output_NoDRL_baseline/SD_NoDRL_baseline_jam_trips.xml"/>
        <statistic-output value="Balibago_traci/output_NoDRL_baseline/SD_NoDRL_baseline_jam_stats.xml"/>
    </output>

    <time>
        <begin value="0"/>
        <end value="10800"/>
        <step-length value="0.1"/>
    </time>

    <processing>
        <lateral-resolution value="0.1"/>
        <collision.action value="none"/>
        <collision.check-junctions value="false"/>
        <collision.mingap-factor value="0"/>
    </processing>

    <report>
        <no-warnings value="true"/>
    </report>

    <traci_server>
        <remote-port value="49957"/>
    </traci_server>

    <gui_only>
        <delay value="0"/>
    </gui_only>

</sumoConfiguration>
-->

<tripinfos xmlns:xsi="http://www.w3.org/2001/XMLSchema-instance" xsi:noNamespaceSchemaLocation="http://sumo.dlr.de/xsd/tripinfo_file.xsd">
    <tripinfo id="NuvalitoBiñan.0" depart="0.70" departLane="-145507700#3_1" departPos="5.10" departPosLat="0.00" departSpeed="29.19" departDelay="0.00" arrival="84.80" arrivalLane="-553887793#0_2" arrivalPos="201.31" arrivalPosLat="0.00" arrivalSpeed="29.13" duration="84.10" routeLength="2093.39" waitingTime="0.00" waitingCount="0" stopTime="0.00" timeLoss="11.20" rerouteNo="1" devices="tripinfo_NuvalitoBiñan.0 routing_NuvalitoBiñan.0" vType="car" speedFactor="1.05" vaporized=""/>
    <tripinfo id="BalibagotoNuvali.0" depart="9.20" departLane="777619905_1" departPos="5.10" departPosLat="0.00" departSpeed="0.00" departDelay="0.00" arrival="85.90" arrivalLane="145507700#3_1" arrivalPos="783.31" arrivalPosLat="-0.00" arrivalSpeed="27.76" duration="76.70" routeLength="1312.87" waitingTime="0.00" waitingCount="0" stopTime="0.00" timeLoss="23.62" rerouteNo="1" devices="tripinfo_BalibagotoNuvali.0 routing_BalibagotoNuvali.0" vType="jeep" speedFactor="1.00" vaporized=""/>
    <personinfo id="PalengketoJollibee.0" depart="0.00" type="ped" speedFactor="1.21" duration="109.10" waitingTime="0.00" timeLoss="11.24" traveltime="109.10">
        <walk depart="0.00" departPos="25.00" arrival="109.10" arrivalPos="5.21" duration="109.10" routeLength="164.52" timeLoss="11.24" maxSpeed="1.68" waitingTime="0.00"/>
    </personinfo>
    <personinfo id="JollibeetoPalengke.0" depart="0.00" type="ped" speedFactor="1.06" duration="118.50" waitingTime="0.00" timeLoss="11.67" traveltime="118.50">
        <walk depart="0.00" departPos="10.42" arrival="118.50" arrivalPos="27.04" duration="118.50" routeLength="157.27" timeLoss="11.67" maxSpeed="1.47" waitingTime="0.00"/>
    </personinfo>
    <tripinfo id="NuvalitoBalibago.0" depart="8.30" departLane="-145507700#3_1" departPos="2.30" departPosLat="0.00" departSpeed="29.25" departDelay="0.00" arrival="129.80" arrivalLane="32083201#1_1" arrivalPos="58.53" arrivalPosLat="0.00" arrivalSpeed="14.53" duration="121.50" routeLength="2060.89" waitingTime="0.00" waitingCount="0" stopTime="0.00" timeLoss="20.80" rerouteNo="1" devices="tripinfo_NuvalitoBalibago.0 routing_NuvalitoBalibago.0" vType="tricycle" speedFactor="1.05" vaporized=""/>
    <personinfo id="PalengketoJollibee.1" depart="49.40" type="ped" speedFactor="1.15" duration="114.10" waitingTime="0.00" timeLoss="11.15" traveltime="114.10">
        <walk depart="49.40" departPos="25.00" arrival="163.50" arrivalPos="5.21" duration="114.10" routeLength="164.52" timeLoss="11.15" maxSpeed="1.60" waitingTime="0.00"/>
    </personinfo>
    <personinfo id="JollibeetoPalengke.1" depart="48.70" type="ped" speedFactor="0.94" duration="138.90" waitingTime="5.10" timeLoss="18.22" traveltime="138.90">
        <walk depart="48.70" departPos="10.42" arrival="187.60" arrivalPos="27.04" duration="138.90" routeLength="157.27" timeLoss="18.22" maxSpeed="1.30" waitingTime="5.10"/>
    </personinfo>
    <tripinfo id="CalambatoBiñan.0" depart="32.70" departLane="185930141#0_1" departPos="2.30" departPosLat="0.00" departSpeed="32.27" departDelay="0.00" arrival="208.40" arrivalLane="-553887793#0_1" arrivalPos="201.31" arrivalPosLat="0.00" arrivalSpeed="32.11" duration="175.70" routeLength="1510.47" waitingTime="121.20" waitingCount="1" stopTime="0.00" timeLoss="128.87" rerouteNo="1" devices="tripinfo_CalambatoBiñan.0 routing_CalambatoBiñan.0" vType="motorcycle" speedFactor="1.16" vaporized=""/>
    <tripinfo id="CalambatoBalibago.0" depart="150.70" departLane="185930141#0_2" departPos="12.10" departPosLat="0.00" departSpeed="27.78" departDelay="0.00" arrival="213.60" arrivalLane="89908334_1" arrivalPos="36.84" arrivalPosLat="0.00" arrivalSpeed="8.96" duration="62.90" routeLength="904.17" waitingTime="0.00" waitingCount="0" stopTime="0.00" timeLoss="21.78" rerouteNo="1" devices="tripinfo_CalambatoBalibago.0 routing_CalambatoBalibago.0" vType="bus" speedFactor="1.00" vaporized=""/>
    <personinfo id="PalengketoJollibee.2" depart="98.70" type="ped" speedFactor="1.13" duration="117.10" waitingTime="0.80" timeLoss="12.43" traveltime="117.10">
        <walk depart="98.70" departPos="25.00" arrival="215.80" arrivalPos="5.21" duration="117.10" routeLength="164.52" timeLoss="12.43" maxSpeed="1.57" waitingTime="0.80"/>
    </personinfo>
    <tripinfo id="NuvalitoCalamba.0" depart="45.30" departLane="-145507700#3_1" departPos="5.10" departPosLat="0.00" departSpeed="27.56" departDelay="0.00" arrival="218.70" arrivalLane="-185930141#0_1" arrivalPos="428.88" arrivalPosLat="-0.00" arrivalSpeed="27.56" duration="173.40" routeLength="2321.76" waitingTime="62.30" waitingCount="1" stopTime="0.00" timeLoss="87.96" rerouteNo="1" devices="tripinfo_NuvalitoCalamba.0 routing_NuvalitoCalamba.0" vType="car" speedFactor="0.99" vaporized=""/>
    <personinfo id="JollibeetoPalengke.2" depart="97.30" type="ped" speedFactor="1.01" duration="124.20" waitingTime="0.00" timeLoss="12.13" traveltime="124.20">
        <walk depart="97.30" departPos="10.42" arrival="221.50" arrivalPos="27.04" duration="124.20" routeLength="157.27" timeLoss="12.13" maxSpeed="1.40" waitingTime="0.00"/>
    </personinfo>
    <tripinfo id="BalibagotoCalamba.1" depart="80.90" departLane="145507698_1" departPos="2.30" departPosLat="0.00" departSpeed="9.75" departDelay="0.00" arrival="221.60" arrivalLane="-185930141#0_2" arrivalPos="428.88" arrivalPosLat="0.00" arrivalSpeed="27.20" duration="140.70" routeLength="1531.99" waitingTime="28.00" waitingCount="1" stopTime="0.00" timeLoss="54.16" rerouteNo="1" devices="tripinfo_BalibagotoCalamba.1 routing_BalibagotoCalamba.1" vType="tricycle" speedFactor="0.98" vaporized=""/>
    <tripinfo id="BalibagotoCalamba.0" depart="41.20" departLane="145507698_1" departPos="7.55" departPosLat="0.00" departSpeed="0.00" departDelay="0.80" arrival="227.00" arrivalLane="-185930141#0_1" arrivalPos="428.88" arrivalPosLat="0.00" arrivalSpeed="27.73" duration="185.80" routeLength="1526.74" waitingTime="53.00" waitingCount="2" stopTime="0.00" timeLoss="101.10" rerouteNo="1" devices="tripinfo_BalibagotoCalamba.0 routing_BalibagotoCalamba.0" vType="bus" speedFactor="1.00" vaporized=""/>
    <tripinfo id="BalibagotoBiñan.0" depart="37.20" departLane="145507698_1" departPos="7.55" departPosLat="0.00" departSpeed="0.00" departDelay="0.00" arrival="227.50" arrivalLane="-553887793#0_1" arrivalPos="201.31" arrivalPosLat="-0.00" arrivalSpeed="27.77" duration="190.30" routeLength="1682.41" waitingTime="36.60" waitingCount="2" stopTime="0.00" timeLoss="100.18" rerouteNo="1" devices="tripinfo_BalibagotoBiñan.0 routing_BalibagotoBiñan.0" vType="jeep" speedFactor="1.00" vaporized=""/>
    <tripinfo id="NuvalitoStaRosa.0" depart="56.20" departLane="-145507700#3_2" departPos="2.30" departPosLat="0.00" departSpeed="30.29" departDelay="0.00" arrival="234.90" arrivalLane="-92878383#0_1" arrivalPos="603.68" arrivalPosLat="-0.00" arrivalSpeed="9.07" duration="178.70" routeLength="2602.84" waitingTime="0.00" waitingCount="0" stopTime="0.00" timeLoss="9.19" rerouteNo="1" devices="tripinfo_NuvalitoStaRosa.0 routing_NuvalitoStaRosa.0" vType="motorcycle" speedFactor="1.09" vaporized=""/>
    <personinfo id="PalengketoSTI.0" depart="0.00" type="ped" speedFactor="1.19" duration="253.20" waitingTime="1.00" timeLoss="30.34" traveltime="253.20">
        <walk depart="0.00" departPos="25.00" arrival="253.20" arrivalPos="19.02" duration="253.20" routeLength="369.14" timeLoss="30.34" maxSpeed="1.66" waitingTime="1.00"/>
    </personinfo>
    <personinfo id="JollibeetoPalengke.3" depart="146.00" type="ped" speedFactor="1.08" duration="116.30" waitingTime="0.00" timeLoss="11.71" traveltime="116.30">
        <walk depart="146.00" departPos="10.42" arrival="262.30" arrivalPos="27.04" duration="116.30" routeLength="157.27" timeLoss="11.71" maxSpeed="1.50" waitingTime="0.00"/>
    </personinfo>
    <tripinfo id="BalibagotoStaRosa.0" depart="58.50" departLane="145507698_1" departPos="2.30" departPosLat="0.00" departSpeed="0.95" departDelay="3.10" arrival="265.50" arrivalLane="-92878383#0_1" arrivalPos="603.68" arrivalPosLat="0.00" arrivalSpeed="8.65" duration="207.00" routeLength="1988.58" waitingTime="0.00" waitingCount="0" stopTime="0.00" timeLoss="26.07" rerouteNo="1" devices="tripinfo_BalibagotoStaRosa.0 routing_BalibagotoStaRosa.0" vType="tricycle" speedFactor="1.05" vaporized=""/>
    <tripinfo id="CalambatoNuvali.0" depart="49.20" departLane="185930141#0_2" departPos="7.20" departPosLat="0.00" departSpeed="28.11" departDelay="0.00" arrival="269.50" arrivalLane="145507700#3_1" arrivalPos="783.31" arrivalPosLat="-0.00" arrivalSpeed="28.07" duration="220.30" routeLength="2330.77" waitingTime="97.60" waitingCount="2" stopTime="0.00" timeLoss="135.76" rerouteNo="1" devices="tripinfo_CalambatoNuvali.0 routing_CalambatoNuvali.0" vType="truck" speedFactor="1.01" vaporized=""/>
    <tripinfo id="NuvalitoStaRosa.1" depart="76.20" departLane="-145507700#3_1" departPos="5.10" departPosLat="0.00" departSpeed="27.45" departDelay="0.00" arrival="276.00" arrivalLane="-92878383#0_1" arrivalPos="603.68" arrivalPosLat="-0.00" arrivalSpeed="8.22" duration="199.80" routeLength="2600.04" waitingTime="0.00" waitingCount="0" stopTime="0.00" timeLoss="12.93" rerouteNo="1" devices="tripinfo_NuvalitoStaRosa.1 routing_NuvalitoStaRosa.1" vType="car" speedFactor="0.99" vaporized=""/>
    <personinfo id="JollibeetoSTI.0" depart="0.00" type="ped" speedFactor="0.96" duration="281.20" waitingTime="0.70" timeLoss="28.65" traveltime="281.20">
        <walk depart="0.00" departPos="10.42" arrival="281.20" arrivalPos="19.02" duration="281.20" routeLength="335.01" timeLoss="28.65" maxSpeed="1.33" waitingTime="0.70"/>
    </personinfo>
    <personinfo id="PalengketoJollibee.3" depart="148.00" type="ped" speedFactor="0.98" duration="135.00" waitingTime="0.00" timeLoss="13.53" traveltime="135.00">
        <walk depart="148.00" departPos="25.00" arrival="283.00" arrivalPos="5.21" duration="135.00" routeLength="164.52" timeLoss="13.53" maxSpeed="1.35" waitingTime="0.00"/>
    </personinfo>
    <personinfo id="STItoSakayan.0" depart="0.00" type="ped" speedFactor="1.05" duration="283.30" waitingTime="0.00" timeLoss="28.49" traveltime="283.30">
        <walk depart="0.00" departPos="25.00" arrival="283.30" arrivalPos="27.04" duration="283.30" routeLength="373.08" timeLoss="28.49" maxSpeed="1.46" waitingTime="0.00"/>
    </personinfo>
    <tripinfo id="NuvalitoStaRosa.2" depart="111.10" departLane="-145507700#3_1" departPos="5.10" departPosLat="0.00" departSpeed="30.02" departDelay="0.00" arrival="299.40" arrivalLane="-92878383#0_1" arrivalPos="603.68" arrivalPosLat="-0.00" arrivalSpeed="8.97" duration="188.30" routeLength="2600.04" waitingTime="0.50" waitingCount="1" stopTime="0.00" timeLoss="17.41" rerouteNo="1" devices="tripinfo_NuvalitoStaRosa.2 routing_NuvalitoStaRosa.2" vType="car" speedFactor="1.08" vaporized=""/>
    <personinfo id="PalengketoJollibee.4" depart="197.30" type="ped" speedFactor="1.18" duration="111.70" waitingTime="0.00" timeLoss="11.28" traveltime="111.70">
        <walk depart="197.30" departPos="25.00" arrival="309.00" arrivalPos="5.21" duration="111.70" routeLength="164.52" timeLoss="11.28" maxSpeed="1.64" waitingTime="0.00"/>
    </personinfo>
    <tripinfo id="BalibagotoBiñan.1" depart="185.50" departLane="145507698_1" departPos="7.55" departPosLat="0.00" departSpeed="0.00" departDelay="0.00" arrival="313.60" arrivalLane="-553887793#0_1" arrivalPos="201.31" arrivalPosLat="0.21" arrivalSpeed="27.72" duration="128.10" routeLength="1682.41" waitingTime="0.00" waitingCount="0" stopTime="0.00" timeLoss="37.97" rerouteNo="1" devices="tripinfo_BalibagotoBiñan.1 routing_BalibagotoBiñan.1" vType="jeep" speedFactor="1.00" vaporized=""/>
    <personinfo id="JollibeetoPalengke.4" depart="194.60" type="ped" speedFactor="1.03" duration="122.00" waitingTime="0.00" timeLoss="12.09" traveltime="122.00">
        <walk depart="194.60" departPos="10.42" arrival="316.60" arrivalPos="27.04" duration="122.00" routeLength="157.27" timeLoss="12.09" maxSpeed="1.43" waitingTime="0.00"/>
    </personinfo>
    <personinfo id="JollibeetoSTI.1" depart="48.00" type="ped" speedFactor="0.98" duration="272.60" waitingTime="0.60" timeLoss="27.69" traveltime="272.60">
        <walk depart="48.00" departPos="10.42" arrival="320.60" arrivalPos="19.02" duration="272.60" routeLength="335.01" timeLoss="27.69" maxSpeed="1.37" waitingTime="0.60"/>
    </personinfo>
    <tripinfo id="CalambatoBalibago.1" depart="194.30" departLane="185930141#0_2" departPos="8.10" departPosLat="0.00" departSpeed="27.78" departDelay="0.00" arrival="322.00" arrivalLane="89908334_1" arrivalPos="36.84" arrivalPosLat="0.00" arrivalSpeed="9.12" duration="127.70" routeLength="908.17" waitingTime="57.40" waitingCount="1" stopTime="0.00" timeLoss="86.37" rerouteNo="1" devices="tripinfo_CalambatoBalibago.1 routing_CalambatoBalibago.1" vType="jeep" speedFactor="1.00" vaporized=""/>
    <tripinfo id="CalambatoBalibago.2" depart="238.20" departLane="185930141#0_2" departPos="2.30" departPosLat="0.00" departSpeed="30.92" departDelay="0.00" arrival="324.50" arrivalLane="89908334_1" arrivalPos="36.84" arrivalPosLat="0.00" arrivalSpeed="11.25" duration="86.30" routeLength="913.97" waitingTime="13.60" waitingCount="1" stopTime="0.00" timeLoss="48.98" rerouteNo="1" devices="tripinfo_CalambatoBalibago.2 routing_CalambatoBalibago.2" vType="tricycle" speedFactor="1.11" vaporized=""/>
    <tripinfo id="CalambatoBalibago.3" depart="267.10" departLane="185930141#0_2" departPos="2.30" departPosLat="0.00" departSpeed="27.86" departDelay="0.00" arrival="327.00" arrivalLane="89908334_1" arrivalPos="36.84" arrivalPosLat="0.00" arrivalSpeed="11.19" duration="59.90" routeLength="913.97" waitingTime="0.00" waitingCount="0" stopTime="0.00" timeLoss="18.45" rerouteNo="1" devices="tripinfo_CalambatoBalibago.3 routing_CalambatoBalibago.3" vType="tricycle" speedFactor="1.00" vaporized=""/>
    <tripinfo id="BiñantoBalibago.0" depart="52.30" departLane="553887793#0_1" departPos="8.10" departPosLat="0.00" departSpeed="27.78" departDelay="0.00" arrival="329.10" arrivalLane="-32083237#0_1" arrivalPos="36.46" arrivalPosLat="0.00" arrivalSpeed="11.36" duration="276.80" routeLength="996.33" waitingTime="194.60" waitingCount="3" stopTime="0.00" timeLoss="237.24" rerouteNo="1" devices="tripinfo_BiñantoBalibago.0 routing_BiñantoBalibago.0" vType="jeep" speedFactor="1.00" vaporized=""/>
    <tripinfo id="BiñantoBalibago.1" depart="90.20" departLane="553887793#0_1" departPos="8.10" departPosLat="0.00" departSpeed="27.78" departDelay="0.00" arrival="337.40" arrivalLane="-32083237#0_1" arrivalPos="36.46" arrivalPosLat="0.00" arrivalSpeed="11.27" duration="247.20" routeLength="996.33" waitingTime="148.60" waitingCount="4" stopTime="0.00" timeLoss="207.65" rerouteNo="1" devices="tripinfo_BiñantoBalibago.1 routing_BiñantoBalibago.1" vType="jeep" speedFactor="1.00" vaporized=""/>
    <tripinfo id="BiñantoCalamba.1" depart="178.20" departLane="553887793#0_1" departPos="5.10" departPosLat="0.00" departSpeed="24.89" departDelay="0.00" arrival="340.30" arrivalLane="-185930141#0_1" arrivalPos="428.88" arrivalPosLat="-0.00" arrivalSpeed="24.85" duration="162.10" routeLength="1507.67" waitingTime="73.60" waitingCount="2" stopTime="0.00" timeLoss="101.46" rerouteNo="1" devices="tripinfo_BiñantoCalamba.1 routing_BiñantoCalamba.1" vType="car" speedFactor="0.90" vaporized=""/>
    <tripinfo id="BiñantoCalamba.0" depart="21.20" departLane="553887793#0_1" departPos="7.20" departPosLat="0.00" departSpeed="29.17" departDelay="0.00" arrival="345.20" arrivalLane="-185930141#0_1" arrivalPos="428.88" arrivalPosLat="-0.00" arrivalSpeed="29.16" duration="324.00" routeLength="1505.57" waitingTime="233.00" waitingCount="2" stopTime="0.00" timeLoss="272.38" rerouteNo="1" devices="tripinfo_BiñantoCalamba.0 routing_BiñantoCalamba.0" vType="truck" speedFactor="1.05" vaporized=""/>
    <tripinfo id="StaRosatoBiñan.0" depart="38.20" departLane="92878383#0_1" departPos="5.10" departPosLat="0.00" departSpeed="7.76" departDelay="0.00" arrival="348.50" arrivalLane="-553887793#0_1" arrivalPos="201.31" arrivalPosLat="-0.00" arrivalSpeed="25.82" duration="310.30" routeLength="1607.72" waitingTime="148.00" waitingCount="1" stopTime="0.00" timeLoss="159.30" rerouteNo="1" devices="tripinfo_StaRosatoBiñan.0 routing_StaRosatoBiñan.0" vType="car" speedFactor="0.93" vaporized=""/>
    <tripinfo id="StaRosatoBiñan.1" depart="116.60" departLane="92878383#0_1" departPos="5.10" departPosLat="0.00" departSpeed="5.23" departDelay="0.60" arrival="349.80" arrivalLane="-553887793#0_1" arrivalPos="201.31" arrivalPosLat="-0.00" arrivalSpeed="27.29" duration="233.20" routeLength="1607.72" waitingTime="77.10" waitingCount="1" stopTime="0.00" timeLoss="90.48" rerouteNo="1" devices="tripinfo_StaRosatoBiñan.1 routing_StaRosatoBiñan.1" vType="car" speedFactor="0.99" vaporized=""/>
    <tripinfo id="BiñantoNuvali.0" depart="70.30" departLane="553887793#0_1" departPos="7.20" departPosLat="0.00" departSpeed="24.77" departDelay="0.00" arrival="355.00" arrivalLane="145507700#3_1" arrivalPos="783.31" arrivalPosLat="-0.00" arrivalSpeed="24.73" duration="284.70" routeLength="2081.63" waitingTime="158.50" waitingCount="2" stopTime="0.00" timeLoss="199.41" rerouteNo="1" devices="tripinfo_BiñantoNuvali.0 routing_BiñantoNuvali.0" vType="truck" speedFactor="0.89" vaporized=""/>
    <tripinfo id="BalibagotoNuvali.1" depart="289.70" departLane="777619905_1" departPos="2.30" departPosLat="0.00" departSpeed="5.50" departDelay="0.00" arrival="358.00" arrivalLane="145507700#3_1" arrivalPos="783.31" arrivalPosLat="-0.00" arrivalSpeed="25.59" duration="68.30" routeLength="1315.67" waitingTime="0.00" waitingCount="0" stopTime="0.00" timeLoss="10.42" rerouteNo="1" devices="tripinfo_BalibagotoNuvali.1 routing_BalibagotoNuvali.1" vType="tricycle" speedFactor="0.92" vaporized=""/>
    <personinfo id="JollibeetoSTI.2" depart="96.00" type="ped" speedFactor="1.03" duration="262.30" waitingTime="1.00" timeLoss="28.68" traveltime="262.30">
        <walk depart="96.00" departPos="10.42" arrival="358.30" arrivalPos="19.02" duration="262.30" routeLength="335.01" timeLoss="28.68" maxSpeed="1.43" waitingTime="1.00"/>
    </personinfo>
    <personinfo id="PalengketoSTI.2" depart="84.80" type="ped" speedFactor="1.07" duration="275.40" waitingTime="0.00" timeLoss="27.35" traveltime="275.40">
        <walk depart="84.80" departPos="25.00" arrival="360.20" arrivalPos="19.02" duration="275.40" routeLength="369.14" timeLoss="27.35" maxSpeed="1.49" waitingTime="0.00"/>
    </personinfo>
    <personinfo id="STItoSakayan.1" depart="48.00" type="ped" speedFactor="0.98" duration="312.40" waitingTime="7.20" timeLoss="37.82" traveltime="312.40">
        <walk depart="48.00" departPos="25.00" arrival="360.40" arrivalPos="27.04" duration="312.40" routeLength="373.08" timeLoss="37.82" maxSpeed="1.36" waitingTime="7.20"/>
    </personinfo>
    <tripinfo id="StaRosatoCalamba.0" depart="77.50" departLane="92878383#0_1" departPos="5.10" departPosLat="0.00" departSpeed="4.30" departDelay="0.00" arrival="363.40" arrivalLane="-185930141#0_1" arrivalPos="428.88" arrivalPosLat="-0.00" arrivalSpeed="24.50" duration="285.90" routeLength="1855.46" waitingTime="101.70" waitingCount="1" stopTime="0.00" timeLoss="116.58" rerouteNo="1" devices="tripinfo_StaRosatoCalamba.0 routing_StaRosatoCalamba.0" vType="car" speedFactor="0.88" vaporized=""/>
    <tripinfo id="BiñantoStaRosa.0" depart="24.20" departLane="553887793#0_2" departPos="5.10" departPosLat="0.00" departSpeed="27.00" departDelay="0.00" arrival="363.80" arrivalLane="-92878383#0_1" arrivalPos="603.68" arrivalPosLat="-0.00" arrivalSpeed="8.02" duration="339.60" routeLength="1785.95" waitingTime="169.90" waitingCount="1" stopTime="0.00" timeLoss="180.96" rerouteNo="1" devices="tripinfo_BiñantoStaRosa.0 routing_BiñantoStaRosa.0" vType="car" speedFactor="0.97" vaporized=""/>
    <personinfo id="PalengketoSTI.1" depart="42.40" type="ped" speedFactor="0.93" duration="321.90" waitingTime="2.60" timeLoss="34.69" traveltime="321.90">
        <walk depart="42.40" departPos="25.00" arrival="364.30" arrivalPos="19.02" duration="321.90" routeLength="369.14" timeLoss="34.69" maxSpeed="1.29" waitingTime="2.60"/>
    </personinfo>
    <personinfo id="PalengketoJollibee.5" depart="246.60" type="ped" speedFactor="1.13" duration="118.00" waitingTime="1.60" timeLoss="13.56" traveltime="118.00">
        <walk depart="246.60" departPos="25.00" arrival="364.60" arrivalPos="5.21" duration="118.00" routeLength="164.52" timeLoss="13.56" maxSpeed="1.58" waitingTime="1.60"/>
    </personinfo>
    <tripinfo id="StaRosatoCalamba.1" depart="93.90" departLane="92878383#0_1" departPos="12.10" departPosLat="0.00" departSpeed="8.33" departDelay="0.00" arrival="371.40" arrivalLane="-185930141#0_1" arrivalPos="428.88" arrivalPosLat="-0.00" arrivalSpeed="27.78" duration="277.50" routeLength="1848.46" waitingTime="98.60" waitingCount="1" stopTime="0.00" timeLoss="128.65" rerouteNo="1" devices="tripinfo_StaRosatoCalamba.1 routing_StaRosatoCalamba.1" vType="bus" speedFactor="1.00" vaporized=""/>
    <tripinfo id="StaRosatoCalamba.2" depart="94.70" departLane="92878383#0_1" departPos="2.30" departPosLat="0.00" departSpeed="4.28" departDelay="0.00" arrival="372.60" arrivalLane="-185930141#0_2" arrivalPos="428.88" arrivalPosLat="0.00" arrivalSpeed="29.40" duration="277.90" routeLength="1858.26" waitingTime="97.50" waitingCount="1" stopTime="0.00" timeLoss="136.44" rerouteNo="1" devices="tripinfo_StaRosatoCalamba.2 routing_StaRosatoCalamba.2" vType="tricycle" speedFactor="1.06" vaporized=""/>
    <tripinfo id="StaRosatoBalibago.0" depart="5.30" departLane="92878383#0_1" departPos="2.30" departPosLat="0.00" departSpeed="6.39" departDelay="0.00" arrival="393.40" arrivalLane="-32083237#0_1" arrivalPos="36.46" arrivalPosLat="0.00" arrivalSpeed="15.12" duration="388.10" routeLength="1364.26" waitingTime="193.50" waitingCount="3" stopTime="0.00" timeLoss="213.33" rerouteNo="1" devices="tripinfo_StaRosatoBalibago.0 routing_StaRosatoBalibago.0" vType="tricycle" speedFactor="0.77" vaporized=""/>
    <personinfo id="PalengketoSTI.3" depart="127.10" type="ped" speedFactor="1.11" duration="267.20" waitingTime="0.20" timeLoss="27.63" traveltime="267.20">
        <walk depart="127.10" departPos="25.00" arrival="394.30" arrivalPos="19.02" duration="267.20" routeLength="369.14" timeLoss="27.63" maxSpeed="1.54" waitingTime="0.20"/>
    </personinfo>
    <personinfo id="JollibeetoPalengke.5" depart="243.30" type="ped" speedFactor="0.83" duration="151.10" waitingTime="0.00" timeLoss="14.83" traveltime="151.10">
        <walk depart="243.30" departPos="10.42" arrival="394.40" arrivalPos="27.04" duration="151.10" routeLength="157.27" timeLoss="14.83" maxSpeed="1.15" waitingTime="0.00"/>
    </personinfo>
    <tripinfo id="NuvalitoBiñan.1" depart="271.60" departLane="-145507700#3_1" departPos="7.20" departPosLat="0.00" departSpeed="29.84" departDelay="0.00" arrival="396.10" arrivalLane="-553887793#0_2" arrivalPos="201.31" arrivalPosLat="0.00" arrivalSpeed="29.78" duration="124.50" routeLength="2091.29" waitingTime="24.90" waitingCount="2" stopTime="0.00" timeLoss="53.21" rerouteNo="1" devices="tripinfo_NuvalitoBiñan.1 routing_NuvalitoBiñan.1" vType="truck" speedFactor="1.07" vaporized=""/>
    <tripinfo id="StaRosatoBalibago.1" depart="76.60" departLane="92878383#0_1" departPos="2.30" departPosLat="0.00" departSpeed="10.11" departDelay="0.00" arrival="396.80" arrivalLane="-32083237#0_1" arrivalPos="36.46" arrivalPosLat="-0.00" arrivalSpeed="15.10" duration="320.20" routeLength="1364.26" waitingTime="176.90" waitingCount="4" stopTime="0.00" timeLoss="209.81" rerouteNo="1" devices="tripinfo_StaRosatoBalibago.1 routing_StaRosatoBalibago.1" vType="tricycle" speedFactor="1.21" vaporized=""/>
    <tripinfo id="NuvalitoBiñan.2" depart="309.60" departLane="-145507700#3_2" departPos="2.30" departPosLat="0.00" departSpeed="31.90" departDelay="0.00" arrival="397.40" arrivalLane="-553887793#0_2" arrivalPos="201.31" arrivalPosLat="0.00" arrivalSpeed="31.80" duration="87.80" routeLength="2096.19" waitingTime="0.00" waitingCount="0" stopTime="0.00" timeLoss="20.92" rerouteNo="1" devices="tripinfo_NuvalitoBiñan.2 routing_NuvalitoBiñan.2" vType="tricycle" speedFactor="1.15" vaporized=""/>
    <tripinfo id="StaRosatoNuvali.0" depart="193.30" departLane="92878383#0_1" departPos="2.30" departPosLat="0.00" departSpeed="7.53" departDelay="0.00" arrival="399.50" arrivalLane="145507700#3_1" arrivalPos="783.31" arrivalPosLat="-0.00" arrivalSpeed="25.03" duration="206.20" routeLength="2448.66" waitingTime="0.00" waitingCount="0" stopTime="0.00" timeLoss="17.79" rerouteNo="1" devices="tripinfo_StaRosatoNuvali.0 routing_StaRosatoNuvali.0" vType="tricycle" speedFactor="0.90" vaporized=""/>
    <tripinfo id="BiñantoStaRosa.1" depart="250.00" departLane="553887793#0_1" departPos="7.20" departPosLat="0.00" departSpeed="29.30" departDelay="0.00" arrival="408.30" arrivalLane="-92878383#0_1" arrivalPos="603.68" arrivalPosLat="-0.00" arrivalSpeed="8.73" duration="158.30" routeLength="1783.85" waitingTime="3.90" waitingCount="1" stopTime="0.00" timeLoss="12.17" rerouteNo="1" devices="tripinfo_BiñantoStaRosa.1 routing_BiñantoStaRosa.1" vType="truck" speedFactor="1.05" vaporized=""/>
    <personinfo id="PalengketoJollibee.6" depart="295.90" type="ped" speedFactor="1.16" duration="113.50" waitingTime="0.00" timeLoss="11.08" traveltime="113.50">
        <walk depart="295.90" departPos="25.00" arrival="409.40" arrivalPos="5.21" duration="113.50" routeLength="164.52" timeLoss="11.08" maxSpeed="1.61" waitingTime="0.00"/>
    </personinfo>
    <tripinfo id="BalibagotoNuvali.2" depart="337.00" departLane="777619905_1" departPos="5.10" departPosLat="0.00" departSpeed="0.00" departDelay="0.00" arrival="413.90" arrivalLane="145507700#3_1" arrivalPos="783.31" arrivalPosLat="-0.00" arrivalSpeed="27.74" duration="76.90" routeLength="1312.87" waitingTime="0.00" waitingCount="0" stopTime="0.00" timeLoss="23.88" rerouteNo="1" devices="tripinfo_BalibagotoNuvali.2 routing_BalibagotoNuvali.2" vType="jeep" speedFactor="1.00" vaporized=""/>
    <personinfo id="JollibeetoSTI.3" depart="144.00" type="ped" speedFactor="0.98" duration="275.50" waitingTime="1.90" timeLoss="29.84" traveltime="275.50">
        <walk depart="144.00" departPos="10.42" arrival="419.50" arrivalPos="19.02" duration="275.50" routeLength="335.01" timeLoss="29.84" maxSpeed="1.36" waitingTime="1.90"/>
    </personinfo>
    <personinfo id="JollibeetoPalengke.6" depart="291.90" type="ped" speedFactor="1.05" duration="127.80" waitingTime="3.70" timeLoss="19.52" traveltime="127.80">
        <walk depart="291.90" departPos="10.42" arrival="419.70" arrivalPos="27.04" duration="127.80" routeLength="157.27" timeLoss="19.52" maxSpeed="1.45" waitingTime="3.70"/>
    </personinfo>
    <personinfo id="STItoSakayan.2" depart="96.00" type="ped" speedFactor="0.93" duration="324.00" waitingTime="2.40" timeLoss="34.95" traveltime="324.00">
        <walk depart="96.00" departPos="25.00" arrival="420.00" arrivalPos="27.04" duration="324.00" routeLength="373.08" timeLoss="34.95" maxSpeed="1.29" waitingTime="2.40"/>
    </personinfo>
    <tripinfo id="StaRosatoBalibago.2" depart="79.30" departLane="92878383#0_1" departPos="8.10" departPosLat="0.00" departSpeed="3.98" departDelay="1.40" arrival="424.60" arrivalLane="-32083237#0_1" arrivalPos="36.46" arrivalPosLat="-0.00" arrivalSpeed="11.22" duration="345.30" routeLength="1358.46" waitingTime="135.90" waitingCount="7" stopTime="0.00" timeLoss="211.94" rerouteNo="1" devices="tripinfo_StaRosatoBalibago.2 routing_StaRosatoBalibago.2" vType="jeep" speedFactor="1.00" vaporized=""/>
    <personinfo id="JollibeetoTarget.0" depart="0.00" type="ped" speedFactor="1.04" duration="427.50" waitingTime="1.30" timeLoss="43.20" traveltime="427.50">
        <walk depart="0.00" departPos="10.42" arrival="427.50" arrivalPos="16.04" duration="427.50" routeLength="555.05" timeLoss="43.20" maxSpeed="1.44" waitingTime="1.30"/>
    </personinfo>
    <personinfo id="STItoSakayan.3" depart="144.00" type="ped" speedFactor="1.06" duration="284.90" waitingTime="2.70" timeLoss="30.67" traveltime="284.90">
        <walk depart="144.00" departPos="25.00" arrival="428.90" arrivalPos="27.04" duration="284.90" routeLength="373.08" timeLoss="30.67" maxSpeed="1.47" waitingTime="2.70"/>
    </personinfo>