<?xml version="1.0" encoding="UTF-8"?>

<!-- generated on 2025-11-12 15:52:46 by Eclipse SUMO GUI Version 1.24.0
<sumoConfiguration xmlns:xsi="http://www.w3.org/2001/XMLSchema-instance" xsi:noNamespaceSchemaLocation="http://sumo.dlr.de/xsd/sumoConfiguration.xsd">

    <input>
        <net-file value="C:\Users\Sammy\Documents\THESIS\DRL_TrafficLight\Olivarez_traci\network\../network/map.net.xml"/>
        <route-files value="C:\Users\Sammy\Documents\THESIS\DRL_TrafficLight\Olivarez_traci\network\olivarez_flows_light.xml"/>
        <additional-files value="C:\Users\Sammy\Documents\THESIS\DRL_TrafficLight\Olivarez_traci\network\traffic.taz.xml,C:\Users\Sammy\Documents\THESIS\DRL_TrafficLight\Olivarez_traci\network\../additionals/detectors.add.xml,C:\Users\Sammy\Documents\THESIS\DRL_TrafficLight\Olivarez_traci\network\../additionals/map.poly.xml"/>
    </input>

    <output>
        <output-prefix value="light_traffic_"/>
        <emission-output value="C:\Users\Sammy\Documents\THESIS\DRL_TrafficLight\Olivarez_traci\network\emissions.xml"/>
        <summary-output value="C:\Users\Sammy\Documents\THESIS\DRL_TrafficLight\Olivarez_traci\network\summary.xml"/>
        <tripinfo-output value="C:\Users\Sammy\Documents\THESIS\DRL_TrafficLight\Olivarez_traci\network\tripinfo.xml"/>
    </output>

    <time>
        <begin value="0"/>
        <end value="14400"/>
        <step-length value="1"/>
    </time>

    <processing>
        <ignore-route-errors value="true"/>
        <lanechange.duration value="3"/>
    </processing>

    <routing>
        <routing-algorithm value="dijkstra"/>
        <device.rerouting.adaptation-steps value="18"/>
        <device.rerouting.adaptation-interval value="10"/>
    </routing>

    <report>
        <verbose value="true"/>
        <no-warnings value="false"/>
        <duration-log.statistics value="true"/>
    </report>

    <random_number>
        <seed value="34567"/>
    </random_number>

    <gui_only>
        <start value="true"/>
    </gui_only>

</sumoConfiguration>
-->

<tripinfos xmlns:xsi="http://www.w3.org/2001/XMLSchema-instance" xsi:noNamespaceSchemaLocation="http://sumo.dlr.de/xsd/tripinfo_file.xsd">
    <tripinfo id="flow_light_traffic_55.0" depart="0.00" departLane="140483224#12_1" departPos="4.60" departSpeed="0.00" departDelay="0.00" arrival="35.00" arrivalLane="-361256298#1_2" arrivalPos="36.33" arrivalSpeed="10.78" duration="35.00" routeLength="369.94" waitingTime="0.00" waitingCount="0" stopTime="0.00" timeLoss="20.57" rerouteNo="1" devices="tripinfo_flow_light_traffic_55.0 routing_flow_light_traffic_55.0 emissions_flow_light_traffic_55.0" vType="car" speedFactor="1.11" vaporized="">
        <emissions CO_abs="1607.54" CO2_abs="178630.27" HC_abs="10.63" PMx_abs="10.90" NOx_abs="62.75" fuel_abs="57908.70" electricity_abs="0.00"/>
    </tripinfo>
    <tripinfo id="flow_light_traffic_59.0" depart="2.00" departLane="140483224#12_1" departPos="2.10" departSpeed="0.00" departDelay="2.00" arrival="37.00" arrivalLane="-361256298#1_2" arrivalPos="36.33" arrivalSpeed="3.97" duration="35.00" routeLength="372.44" waitingTime="0.00" waitingCount="0" stopTime="0.00" timeLoss="19.66" rerouteNo="1" devices="tripinfo_flow_light_traffic_59.0 routing_flow_light_traffic_59.0 emissions_flow_light_traffic_59.0" vType="motorcycle" speedFactor="1.02" vaporized="">
        <emissions CO_abs="3838.05" CO2_abs="78076.45" HC_abs="821.30" PMx_abs="14.40" NOx_abs="145.09" fuel_abs="25315.92" electricity_abs="0.00"/>
    </tripinfo>
    <tripinfo id="flow_light_traffic_64.0" depart="5.00" departLane="140483224#12_1" departPos="8.10" departSpeed="0.00" departDelay="5.00" arrival="40.00" arrivalLane="939610874_1" arrivalPos="50.72" arrivalSpeed="5.24" duration="35.00" routeLength="290.42" waitingTime="0.00" waitingCount="0" stopTime="0.00" timeLoss="14.01" rerouteNo="1" devices="tripinfo_flow_light_traffic_64.0 routing_flow_light_traffic_64.0 emissions_flow_light_traffic_64.0" vType="truck" speedFactor="1.04" vaporized="">
        <emissions CO_abs="51.53" CO2_abs="192627.16" HC_abs="3.97" PMx_abs="41.39" NOx_abs="69.45" fuel_abs="61904.98" electricity_abs="0.00"/>
    </tripinfo>
    <tripinfo id="flow_light_traffic_71.0" depart="8.00" departLane="140483224#12_1" departPos="2.10" departSpeed="0.00" departDelay="8.00" arrival="41.00" arrivalLane="440471861#6_2" arrivalPos="125.31" arrivalSpeed="17.29" duration="33.00" routeLength="486.45" waitingTime="0.00" waitingCount="0" stopTime="0.00" timeLoss="11.46" rerouteNo="1" devices="tripinfo_flow_light_traffic_71.0 routing_flow_light_traffic_71.0 emissions_flow_light_traffic_71.0" vType="motorcycle" speedFactor="0.96" vaporized="">
        <emissions CO_abs="9456.63" CO2_abs="116893.30" HC_abs="1180.50" PMx_abs="17.90" NOx_abs="278.96" fuel_abs="37901.38" electricity_abs="0.00"/>
    </tripinfo>
    <tripinfo id="flow_light_traffic_66.0" depart="10.00" departLane="140483224#12_1" departPos="3.10" departSpeed="0.00" departDelay="8.00" arrival="47.00" arrivalLane="939610874_1" arrivalPos="50.72" arrivalSpeed="7.61" duration="37.00" routeLength="295.42" waitingTime="0.00" waitingCount="0" stopTime="0.00" timeLoss="13.46" rerouteNo="1" devices="tripinfo_flow_light_traffic_66.0 routing_flow_light_traffic_66.0 emissions_flow_light_traffic_66.0" vType="tricycle" speedFactor="0.97" vaporized="">
        <emissions CO_abs="1133.40" CO2_abs="55864.58" HC_abs="596.52" PMx_abs="11.97" NOx_abs="71.21" fuel_abs="18114.15" electricity_abs="0.00"/>
    </tripinfo>
    <tripinfo id="flow_light_traffic_64.1" depart="12.00" departLane="140483224#12_1" departPos="8.10" departSpeed="0.00" departDelay="9.00" arrival="49.00" arrivalLane="939610874_1" arrivalPos="50.72" arrivalSpeed="8.40" duration="37.00" routeLength="290.42" waitingTime="0.00" waitingCount="0" stopTime="0.00" timeLoss="16.26" rerouteNo="1" devices="tripinfo_flow_light_traffic_64.1 routing_flow_light_traffic_64.1 emissions_flow_light_traffic_64.1" vType="truck" speedFactor="1.09" vaporized="">
        <emissions CO_abs="57.22" CO2_abs="206605.33" HC_abs="4.21" PMx_abs="43.00" NOx_abs="70.85" fuel_abs="66396.90" electricity_abs="0.00"/>
    </tripinfo>
    <tripinfo id="flow_light_traffic_20.0" depart="6.00" departLane="939610874_1" departPos="7.10" departSpeed="0.00" departDelay="1.00" arrival="51.00" arrivalLane="-361256298#1_1" arrivalPos="36.33" arrivalSpeed="8.21" duration="45.00" routeLength="272.95" waitingTime="0.00" waitingCount="0" stopTime="0.00" timeLoss="14.15" rerouteNo="1" devices="tripinfo_flow_light_traffic_20.0 routing_flow_light_traffic_20.0 emissions_flow_light_traffic_20.0" vType="jeep" speedFactor="1.00" vaporized="">
        <emissions CO_abs="113.41" CO2_abs="472464.46" HC_abs="8.33" PMx_abs="56.76" NOx_abs="175.03" fuel_abs="151834.91" electricity_abs="0.00"/>
    </tripinfo>
    <tripinfo id="flow_light_traffic_61.0" depart="16.00" departLane="140483224#12_1" departPos="4.60" departSpeed="0.00" departDelay="12.00" arrival="52.00" arrivalLane="939610874_1" arrivalPos="50.72" arrivalSpeed="7.00" duration="36.00" routeLength="293.92" waitingTime="0.00" waitingCount="0" stopTime="0.00" timeLoss="12.50" rerouteNo="1" devices="tripinfo_flow_light_traffic_61.0 routing_flow_light_traffic_61.0 emissions_flow_light_traffic_61.0" vType="car" speedFactor="0.98" vaporized="">
        <emissions CO_abs="383.83" CO2_abs="88383.67" HC_abs="2.54" PMx_abs="6.77" NOx_abs="29.15" fuel_abs="28652.70" electricity_abs="0.00"/>
    </tripinfo>
    <tripinfo id="flow_light_traffic_19.0" depart="10.00" departLane="939610874_1" departPos="4.60" departSpeed="0.00" departDelay="0.00" arrival="53.00" arrivalLane="-361256298#1_1" arrivalPos="36.33" arrivalSpeed="10.26" duration="43.00" routeLength="275.45" waitingTime="0.00" waitingCount="0" stopTime="0.00" timeLoss="14.31" rerouteNo="1" devices="tripinfo_flow_light_traffic_19.0 routing_flow_light_traffic_19.0 emissions_flow_light_traffic_19.0" vType="car" speedFactor="1.09" vaporized="">
        <emissions CO_abs="250.56" CO2_abs="90791.66" HC_abs="1.66" PMx_abs="5.80" NOx_abs="28.54" fuel_abs="29433.30" electricity_abs="0.00"/>
    </tripinfo>
    <tripinfo id="flow_light_traffic_24.0" depart="15.00" departLane="939610874_1" departPos="3.10" departSpeed="0.00" departDelay="3.00" arrival="60.00" arrivalLane="-361256298#1_1" arrivalPos="36.33" arrivalSpeed="13.47" duration="45.00" routeLength="276.95" waitingTime="0.00" waitingCount="0" stopTime="0.00" timeLoss="13.73" rerouteNo="1" devices="tripinfo_flow_light_traffic_24.0 routing_flow_light_traffic_24.0 emissions_flow_light_traffic_24.0" vType="tricycle" speedFactor="1.00" vaporized="">
        <emissions CO_abs="906.92" CO2_abs="68459.15" HC_abs="740.21" PMx_abs="15.54" NOx_abs="72.47" fuel_abs="22198.10" electricity_abs="0.00"/>
    </tripinfo>
    <tripinfo id="flow_light_traffic_20.1" depart="23.00" departLane="939610874_1" departPos="7.10" departSpeed="0.00" departDelay="5.00" arrival="64.00" arrivalLane="-361256298#1_1" arrivalPos="36.33" arrivalSpeed="10.42" duration="41.00" routeLength="272.95" waitingTime="0.00" waitingCount="0" stopTime="0.00" timeLoss="10.04" rerouteNo="1" devices="tripinfo_flow_light_traffic_20.1 routing_flow_light_traffic_20.1 emissions_flow_light_traffic_20.1" vType="jeep" speedFactor="1.00" vaporized="">
        <emissions CO_abs="106.53" CO2_abs="469710.49" HC_abs="8.17" PMx_abs="54.33" NOx_abs="169.46" fuel_abs="150949.98" electricity_abs="0.00"/>
    </tripinfo>
    <tripinfo id="flow_light_traffic_67.0" depart="19.00" departLane="140483224#12_1" departPos="4.60" departSpeed="0.00" departDelay="15.00" arrival="65.00" arrivalLane="440471861#6_1" arrivalPos="125.31" arrivalSpeed="9.99" duration="46.00" routeLength="483.95" waitingTime="0.00" waitingCount="0" stopTime="0.00" timeLoss="26.91" rerouteNo="1" devices="tripinfo_flow_light_traffic_67.0 routing_flow_light_traffic_67.0 emissions_flow_light_traffic_67.0" vType="car" speedFactor="1.08" vaporized="">
        <emissions CO_abs="2178.44" CO2_abs="234459.45" HC_abs="14.40" PMx_abs="14.34" NOx_abs="83.49" fuel_abs="76007.53" electricity_abs="0.00"/>
    </tripinfo>
    <tripinfo id="flow_light_traffic_7.0" depart="11.00" departLane="-361256298#1_1" departPos="4.60" departSpeed="0.00" departDelay="4.00" arrival="76.00" arrivalLane="440471861#6_1" arrivalPos="125.31" arrivalSpeed="12.31" duration="65.00" routeLength="520.59" waitingTime="11.00" waitingCount="2" stopTime="0.00" timeLoss="45.80" rerouteNo="1" devices="tripinfo_flow_light_traffic_7.0 routing_flow_light_traffic_7.0 emissions_flow_light_traffic_7.0" vType="car" speedFactor="1.04" vaporized="">
        <emissions CO_abs="2288.55" CO2_abs="274860.70" HC_abs="15.13" PMx_abs="14.85" NOx_abs="97.42" fuel_abs="89105.13" electricity_abs="0.00"/>
    </tripinfo>
    <tripinfo id="flow_light_traffic_19.1" depart="35.00" departLane="939610874_1" departPos="4.60" departSpeed="0.00" departDelay="4.00" arrival="76.00" arrivalLane="-361256298#1_1" arrivalPos="36.33" arrivalSpeed="13.72" duration="41.00" routeLength="275.45" waitingTime="0.00" waitingCount="0" stopTime="0.00" timeLoss="11.30" rerouteNo="1" devices="tripinfo_flow_light_traffic_19.1 routing_flow_light_traffic_19.1 emissions_flow_light_traffic_19.1" vType="car" speedFactor="1.05" vaporized="">
        <emissions CO_abs="382.95" CO2_abs="102744.49" HC_abs="2.53" PMx_abs="6.25" NOx_abs="32.24" fuel_abs="33308.12" electricity_abs="0.00"/>
    </tripinfo>
    <tripinfo id="flow_light_traffic_1.0" depart="2.00" departLane="-361256298#1_1" departPos="4.60" departSpeed="0.00" departDelay="0.00" arrival="79.00" arrivalLane="939610874_1" arrivalPos="50.72" arrivalSpeed="4.83" duration="77.00" routeLength="317.74" waitingTime="36.00" waitingCount="1" stopTime="0.00" timeLoss="50.94" rerouteNo="1" devices="tripinfo_flow_light_traffic_1.0 routing_flow_light_traffic_1.0 emissions_flow_light_traffic_1.0" vType="car" speedFactor="0.92" vaporized="">
        <emissions CO_abs="930.30" CO2_abs="193431.17" HC_abs="6.15" PMx_abs="8.08" NOx_abs="69.11" fuel_abs="62707.65" electricity_abs="0.00"/>
    </tripinfo>
    <tripinfo id="flow_light_traffic_1.1" depart="8.00" departLane="-361256298#1_1" departPos="4.60" departSpeed="0.00" departDelay="2.00" arrival="81.00" arrivalLane="939610874_1" arrivalPos="50.72" arrivalSpeed="7.40" duration="73.00" routeLength="317.74" waitingTime="31.00" waitingCount="1" stopTime="0.00" timeLoss="51.22" rerouteNo="1" devices="tripinfo_flow_light_traffic_1.1 routing_flow_light_traffic_1.1 emissions_flow_light_traffic_1.1" vType="car" speedFactor="1.12" vaporized="">
        <emissions CO_abs="921.32" CO2_abs="194277.18" HC_abs="6.08" PMx_abs="8.21" NOx_abs="68.04" fuel_abs="62981.82" electricity_abs="0.00"/>
    </tripinfo>
    <tripinfo id="flow_light_traffic_20.2" depart="63.00" departLane="939610874_1" departPos="7.10" departSpeed="0.00" departDelay="14.00" arrival="106.00" arrivalLane="-361256298#1_1" arrivalPos="36.33" arrivalSpeed="9.46" duration="43.00" routeLength="272.95" waitingTime="0.00" waitingCount="0" stopTime="0.00" timeLoss="12.03" rerouteNo="1" devices="tripinfo_flow_light_traffic_20.2 routing_flow_light_traffic_20.2 emissions_flow_light_traffic_20.2" vType="jeep" speedFactor="1.00" vaporized="">
        <emissions CO_abs="115.77" CO2_abs="485673.72" HC_abs="8.62" PMx_abs="58.63" NOx_abs="181.00" fuel_abs="156079.78" electricity_abs="0.00"/>
    </tripinfo>
    <tripinfo id="flow_light_traffic_19.2" depart="78.00" departLane="939610874_1" departPos="4.60" departSpeed="0.00" departDelay="22.00" arrival="121.00" arrivalLane="-361256298#1_1" arrivalPos="36.33" arrivalSpeed="12.90" duration="43.00" routeLength="275.45" waitingTime="0.00" waitingCount="0" stopTime="0.00" timeLoss="9.00" rerouteNo="1" devices="tripinfo_flow_light_traffic_19.2 routing_flow_light_traffic_19.2 emissions_flow_light_traffic_19.2" vType="car" speedFactor="0.91" vaporized="">
        <emissions CO_abs="275.04" CO2_abs="92566.37" HC_abs="1.82" PMx_abs="6.12" NOx_abs="29.99" fuel_abs="30008.70" electricity_abs="0.00"/>
    </tripinfo>
    <tripinfo id="flow_light_traffic_30.0" depart="4.00" departLane="939610874_1" departPos="3.10" departSpeed="0.00" departDelay="0.00" arrival="128.00" arrivalLane="440471861#6_1" arrivalPos="125.31" arrivalSpeed="13.31" duration="124.00" routeLength="522.15" waitingTime="54.00" waitingCount="3" stopTime="0.00" timeLoss="85.13" rerouteNo="1" devices="tripinfo_flow_light_traffic_30.0 routing_flow_light_traffic_30.0 emissions_flow_light_traffic_30.0" vType="tricycle" speedFactor="0.95" vaporized="">
        <emissions CO_abs="5334.85" CO2_abs="223290.32" HC_abs="2867.99" PMx_abs="56.83" NOx_abs="249.37" fuel_abs="72403.26" electricity_abs="0.00"/>
    </tripinfo>
    <tripinfo id="flow_light_traffic_20.3" depart="86.00" departLane="939610874_1" departPos="7.10" departSpeed="0.00" departDelay="17.00" arrival="130.00" arrivalLane="-361256298#1_1" arrivalPos="36.33" arrivalSpeed="8.99" duration="44.00" routeLength="272.95" waitingTime="0.00" waitingCount="0" stopTime="0.00" timeLoss="13.20" rerouteNo="1" devices="tripinfo_flow_light_traffic_20.3 routing_flow_light_traffic_20.3 emissions_flow_light_traffic_20.3" vType="jeep" speedFactor="1.00" vaporized="">
        <emissions CO_abs="111.62" CO2_abs="481413.23" HC_abs="8.17" PMx_abs="53.93" NOx_abs="167.59" fuel_abs="154711.03" electricity_abs="0.00"/>
    </tripinfo>
    <tripinfo id="flow_light_traffic_45.0" depart="6.00" departLane="440471861#6_1" departPos="12.10" departSpeed="0.00" departDelay="5.00" arrival="133.00" arrivalLane="939610874_1" arrivalPos="50.72" arrivalSpeed="5.54" duration="127.00" routeLength="332.74" waitingTime="78.00" waitingCount="1" stopTime="0.00" timeLoss="102.73" rerouteNo="1" devices="tripinfo_flow_light_traffic_45.0 routing_flow_light_traffic_45.0 emissions_flow_light_traffic_45.0" vType="bus" speedFactor="1.00" vaporized="">
        <emissions CO_abs="298.98" CO2_abs="892135.21" HC_abs="20.39" PMx_abs="178.27" NOx_abs="544.64" fuel_abs="286706.32" electricity_abs="0.00"/>
    </tripinfo>
    <tripinfo id="flow_light_traffic_19.3" depart="91.00" departLane="939610874_1" departPos="4.60" departSpeed="0.00" departDelay="15.00" arrival="138.00" arrivalLane="-361256298#1_1" arrivalPos="36.33" arrivalSpeed="11.77" duration="47.00" routeLength="275.45" waitingTime="0.00" waitingCount="0" stopTime="0.00" timeLoss="9.91" rerouteNo="1" devices="tripinfo_flow_light_traffic_19.3 routing_flow_light_traffic_19.3 emissions_flow_light_traffic_19.3" vType="car" speedFactor="0.83" vaporized="">
        <emissions CO_abs="225.82" CO2_abs="87716.26" HC_abs="1.49" PMx_abs="5.43" NOx_abs="28.02" fuel_abs="28436.34" electricity_abs="0.00"/>
    </tripinfo>
    <tripinfo id="flow_light_traffic_19.4" depart="94.00" departLane="939610874_1" departPos="4.60" departSpeed="0.00" departDelay="16.00" arrival="140.00" arrivalLane="-361256298#1_1" arrivalPos="36.33" arrivalSpeed="13.52" duration="46.00" routeLength="275.45" waitingTime="0.00" waitingCount="0" stopTime="0.00" timeLoss="17.17" rerouteNo="1" devices="tripinfo_flow_light_traffic_19.4 routing_flow_light_traffic_19.4 emissions_flow_light_traffic_19.4" vType="car" speedFactor="1.07" vaporized="">
        <emissions CO_abs="324.46" CO2_abs="100792.13" HC_abs="2.14" PMx_abs="6.11" NOx_abs="32.11" fuel_abs="32675.29" electricity_abs="0.00"/>
    </tripinfo>
    <tripinfo id="flow_light_traffic_48.0" depart="23.00" departLane="440471861#6_1" departPos="3.10" departSpeed="0.00" departDelay="18.00" arrival="141.00" arrivalLane="939610874_1" arrivalPos="50.72" arrivalSpeed="7.91" duration="118.00" routeLength="341.74" waitingTime="70.00" waitingCount="1" stopTime="0.00" timeLoss="94.72" rerouteNo="1" devices="tripinfo_flow_light_traffic_48.0 routing_flow_light_traffic_48.0 emissions_flow_light_traffic_48.0" vType="tricycle" speedFactor="1.05" vaporized="">
        <emissions CO_abs="1891.74" CO2_abs="188359.32" HC_abs="2611.28" PMx_abs="53.75" NOx_abs="150.99" fuel_abs="61077.63" electricity_abs="0.00"/>
    </tripinfo>
    <tripinfo id="flow_light_traffic_48.1" depart="25.00" departLane="440471861#6_1" departPos="3.10" departSpeed="0.00" departDelay="19.00" arrival="143.00" arrivalLane="939610874_1" arrivalPos="50.72" arrivalSpeed="7.79" duration="118.00" routeLength="341.74" waitingTime="69.00" waitingCount="1" stopTime="0.00" timeLoss="95.03" rerouteNo="1" devices="tripinfo_flow_light_traffic_48.1 routing_flow_light_traffic_48.1 emissions_flow_light_traffic_48.1" vType="tricycle" speedFactor="1.06" vaporized="">
        <emissions CO_abs="1787.67" CO2_abs="183806.25" HC_abs="2540.03" PMx_abs="52.25" NOx_abs="147.60" fuel_abs="59601.22" electricity_abs="0.00"/>
    </tripinfo>
    <tripinfo id="flow_light_traffic_19.5" depart="98.00" departLane="939610874_1" departPos="4.60" departSpeed="0.00" departDelay="18.00" arrival="143.00" arrivalLane="-361256298#1_1" arrivalPos="36.33" arrivalSpeed="12.14" duration="45.00" routeLength="275.45" waitingTime="0.00" waitingCount="0" stopTime="0.00" timeLoss="15.23" rerouteNo="1" devices="tripinfo_flow_light_traffic_19.5 routing_flow_light_traffic_19.5 emissions_flow_light_traffic_19.5" vType="car" speedFactor="1.04" vaporized="">
        <emissions CO_abs="295.23" CO2_abs="97307.97" HC_abs="1.95" PMx_abs="5.70" NOx_abs="30.37" fuel_abs="31545.74" electricity_abs="0.00"/>
    </tripinfo>
    <tripinfo id="flow_light_traffic_20.4" depart="106.00" departLane="939610874_1" departPos="7.10" departSpeed="0.00" departDelay="23.00" arrival="148.00" arrivalLane="-361256298#1_1" arrivalPos="36.33" arrivalSpeed="5.11" duration="42.00" routeLength="272.95" waitingTime="0.00" waitingCount="0" stopTime="0.00" timeLoss="11.62" rerouteNo="1" devices="tripinfo_flow_light_traffic_20.4 routing_flow_light_traffic_20.4 emissions_flow_light_traffic_20.4" vType="jeep" speedFactor="1.00" vaporized="">
        <emissions CO_abs="97.32" CO2_abs="414588.03" HC_abs="7.12" PMx_abs="47.47" NOx_abs="147.14" fuel_abs="133235.46" electricity_abs="0.00"/>
    </tripinfo>
    <tripinfo id="flow_light_traffic_61.1" depart="30.00" departLane="140483224#12_1" departPos="4.60" departSpeed="0.00" departDelay="21.00" arrival="165.00" arrivalLane="939610874_1" arrivalPos="50.72" arrivalSpeed="6.95" duration="135.00" routeLength="293.92" waitingTime="87.00" waitingCount="2" stopTime="0.00" timeLoss="113.49" rerouteNo="1" devices="tripinfo_flow_light_traffic_61.1 routing_flow_light_traffic_61.1 emissions_flow_light_traffic_61.1" vType="car" speedFactor="1.05" vaporized="">
        <emissions CO_abs="586.52" CO2_abs="268865.26" HC_abs="3.87" PMx_abs="6.84" NOx_abs="96.55" fuel_abs="87163.13" electricity_abs="0.00"/>
    </tripinfo>
    <tripinfo id="flow_light_traffic_13.0" depart="5.00" departLane="-361256298#1_1" departPos="4.60" departSpeed="0.00" departDelay="0.00" arrival="167.00" arrivalLane="140483224#12_2" arrivalPos="63.66" arrivalSpeed="12.02" duration="162.00" routeLength="508.01" waitingTime="98.00" waitingCount="3" stopTime="0.00" timeLoss="141.95" rerouteNo="1" devices="tripinfo_flow_light_traffic_13.0 routing_flow_light_traffic_13.0 emissions_flow_light_traffic_13.0" vType="car" speedFactor="1.03" vaporized="">
        <emissions CO_abs="1783.95" CO2_abs="403038.67" HC_abs="11.78" PMx_abs="13.74" NOx_abs="145.99" fuel_abs="130659.87" electricity_abs="0.00"/>
    </tripinfo>
    <tripinfo id="flow_light_traffic_66.1" depart="32.00" departLane="140483224#12_1" departPos="3.10" departSpeed="0.00" departDelay="23.00" arrival="167.00" arrivalLane="939610874_1" arrivalPos="50.72" arrivalSpeed="7.51" duration="135.00" routeLength="295.42" waitingTime="88.00" waitingCount="2" stopTime="0.00" timeLoss="111.57" rerouteNo="1" devices="tripinfo_flow_light_traffic_66.1 routing_flow_light_traffic_66.1 emissions_flow_light_traffic_66.1" vType="tricycle" speedFactor="0.97" vaporized="">
        <emissions CO_abs="1245.82" CO2_abs="201781.34" HC_abs="2938.46" PMx_abs="60.97" NOx_abs="134.32" fuel_abs="65430.34" electricity_abs="0.00"/>
    </tripinfo>
    <tripinfo id="flow_light_traffic_13.1" depart="14.00" departLane="-361256298#1_1" departPos="4.60" departSpeed="0.00" departDelay="6.00" arrival="172.00" arrivalLane="140483224#12_2" arrivalPos="63.66" arrivalSpeed="12.55" duration="158.00" routeLength="508.01" waitingTime="85.00" waitingCount="3" stopTime="0.00" timeLoss="136.06" rerouteNo="1" devices="tripinfo_flow_light_traffic_13.1 routing_flow_light_traffic_13.1 emissions_flow_light_traffic_13.1" vType="car" speedFactor="0.94" vaporized="">
        <emissions CO_abs="1770.97" CO2_abs="393613.99" HC_abs="11.70" PMx_abs="13.60" NOx_abs="141.04" fuel_abs="127604.47" electricity_abs="0.00"/>
    </tripinfo>
    <tripinfo id="flow_light_traffic_31.0" depart="13.00" departLane="939610874_1" departPos="4.60" departSpeed="0.00" departDelay="2.00" arrival="176.00" arrivalLane="140483224#12_1" arrivalPos="63.66" arrivalSpeed="5.94" duration="163.00" routeLength="521.05" waitingTime="85.00" waitingCount="2" stopTime="0.00" timeLoss="128.01" rerouteNo="1" devices="tripinfo_flow_light_traffic_31.0 routing_flow_light_traffic_31.0 emissions_flow_light_traffic_31.0" vType="car" speedFactor="1.04" vaporized="">
        <emissions CO_abs="1247.68" CO2_abs="353534.11" HC_abs="8.26" PMx_abs="12.36" NOx_abs="125.20" fuel_abs="114611.26" electricity_abs="0.00"/>
    </tripinfo>
    <tripinfo id="flow_light_traffic_31.1" depart="67.00" departLane="939610874_1" departPos="4.60" departSpeed="0.00" departDelay="14.00" arrival="178.00" arrivalLane="140483224#12_1" arrivalPos="63.66" arrivalSpeed="7.62" duration="111.00" routeLength="521.05" waitingTime="36.00" waitingCount="2" stopTime="0.00" timeLoss="70.22" rerouteNo="1" devices="tripinfo_flow_light_traffic_31.1 routing_flow_light_traffic_31.1 emissions_flow_light_traffic_31.1" vType="car" speedFactor="0.88" vaporized="">
        <emissions CO_abs="1289.45" CO2_abs="284936.77" HC_abs="8.52" PMx_abs="12.80" NOx_abs="97.16" fuel_abs="92372.22" electricity_abs="0.00"/>
    </tripinfo>
    <tripinfo id="flow_light_traffic_34.0" depart="18.00" departLane="939610874_1" departPos="8.10" departSpeed="0.00" departDelay="2.00" arrival="179.00" arrivalLane="140483224#12_2" arrivalPos="63.66" arrivalSpeed="10.68" duration="161.00" routeLength="517.55" waitingTime="78.00" waitingCount="2" stopTime="0.00" timeLoss="126.21" rerouteNo="1" devices="tripinfo_flow_light_traffic_34.0 routing_flow_light_traffic_34.0 emissions_flow_light_traffic_34.0" vType="truck" speedFactor="1.01" vaporized="">
        <emissions CO_abs="217.43" CO2_abs="581736.18" HC_abs="16.28" PMx_abs="223.66" NOx_abs="149.78" fuel_abs="186945.69" electricity_abs="0.00"/>
    </tripinfo>
    <tripinfo id="flow_light_traffic_63.0" depart="54.00" departLane="140483224#12_1" departPos="12.10" departSpeed="0.00" departDelay="38.00" arrival="180.00" arrivalLane="939610874_1" arrivalPos="50.72" arrivalSpeed="5.26" duration="126.00" routeLength="286.42" waitingTime="63.00" waitingCount="3" stopTime="0.00" timeLoss="104.19" rerouteNo="1" devices="tripinfo_flow_light_traffic_63.0 routing_flow_light_traffic_63.0 emissions_flow_light_traffic_63.0" vType="bus" speedFactor="1.00" vaporized="">
        <emissions CO_abs="295.85" CO2_abs="773940.06" HC_abs="19.06" PMx_abs="175.56" NOx_abs="521.89" fuel_abs="248719.85" electricity_abs="0.00"/>
    </tripinfo>
    <tripinfo id="flow_light_traffic_49.0" depart="27.00" departLane="440471861#6_1" departPos="4.60" departSpeed="0.00" departDelay="21.00" arrival="181.00" arrivalLane="140483224#12_2" arrivalPos="63.66" arrivalSpeed="13.29" duration="154.00" routeLength="512.65" waitingTime="81.00" waitingCount="2" stopTime="0.00" timeLoss="131.73" rerouteNo="1" devices="tripinfo_flow_light_traffic_49.0 routing_flow_light_traffic_49.0 emissions_flow_light_traffic_49.0" vType="car" speedFactor="0.90" vaporized="">
        <emissions CO_abs="1815.38" CO2_abs="390555.60" HC_abs="11.99" PMx_abs="14.34" NOx_abs="139.39" fuel_abs="126612.90" electricity_abs="0.00"/>
    </tripinfo>
    <tripinfo id="flow_light_traffic_54.0" depart="0.00" departLane="440471861#6_1" departPos="3.10" departSpeed="0.00" departDelay="0.00" arrival="182.00" arrivalLane="140483224#12_2" arrivalPos="63.66" arrivalSpeed="15.28" duration="182.00" routeLength="514.15" waitingTime="119.00" waitingCount="3" stopTime="0.00" timeLoss="161.98" rerouteNo="1" devices="tripinfo_flow_light_traffic_54.0 routing_flow_light_traffic_54.0 emissions_flow_light_traffic_54.0" vType="tricycle" speedFactor="1.02" vaporized="">
        <emissions CO_abs="6765.87" CO2_abs="319427.75" HC_abs="4406.53" PMx_abs="87.86" NOx_abs="316.25" fuel_abs="103577.36" electricity_abs="0.00"/>
    </tripinfo>
    <tripinfo id="flow_light_traffic_66.2" depart="58.00" departLane="140483224#12_1" departPos="3.10" departSpeed="0.00" departDelay="41.00" arrival="183.00" arrivalLane="939610874_1" arrivalPos="50.72" arrivalSpeed="7.66" duration="125.00" routeLength="295.42" waitingTime="62.00" waitingCount="2" stopTime="0.00" timeLoss="105.66" rerouteNo="1" devices="tripinfo_flow_light_traffic_66.2 routing_flow_light_traffic_66.2 emissions_flow_light_traffic_66.2" vType="tricycle" speedFactor="1.19" vaporized="">
        <emissions CO_abs="679.76" CO2_abs="177290.47" HC_abs="2506.63" PMx_abs="52.81" NOx_abs="105.52" fuel_abs="57488.81" electricity_abs="0.00"/>
    </tripinfo>
    <tripinfo id="flow_light_traffic_50.0" depart="10.00" departLane="440471861#6_1" departPos="7.10" departSpeed="0.00" departDelay="9.00" arrival="185.00" arrivalLane="140483224#12_2" arrivalPos="63.66" arrivalSpeed="12.79" duration="175.00" routeLength="510.15" waitingTime="98.00" waitingCount="2" stopTime="0.00" timeLoss="154.63" rerouteNo="1" devices="tripinfo_flow_light_traffic_50.0 routing_flow_light_traffic_50.0 emissions_flow_light_traffic_50.0" vType="jeep" speedFactor="1.00" vaporized="">
        <emissions CO_abs="434.39" CO2_abs="1447986.52" HC_abs="30.66" PMx_abs="253.85" NOx_abs="787.73" fuel_abs="465341.38" electricity_abs="0.00"/>
    </tripinfo>
    <tripinfo id="flow_light_traffic_53.1" depart="42.00" departLane="440471861#6_1" departPos="2.10" departSpeed="0.00" departDelay="28.00" arrival="188.00" arrivalLane="140483224#12_2" arrivalPos="63.66" arrivalSpeed="20.21" duration="146.00" routeLength="515.15" waitingTime="77.00" waitingCount="3" stopTime="0.00" timeLoss="129.12" rerouteNo="1" devices="tripinfo_flow_light_traffic_53.1 routing_flow_light_traffic_53.1 emissions_flow_light_traffic_53.1" vType="motorcycle" speedFactor="1.24" vaporized="">
        <emissions CO_abs="4964.60" CO2_abs="268237.04" HC_abs="3561.22" PMx_abs="70.72" NOx_abs="277.17" fuel_abs="86977.88" electricity_abs="0.00"/>
    </tripinfo>
    <tripinfo id="flow_light_traffic_54.1" depart="41.00" departLane="440471861#6_1" departPos="3.10" departSpeed="0.00" departDelay="30.00" arrival="190.00" arrivalLane="140483224#12_2" arrivalPos="63.66" arrivalSpeed="5.49" duration="149.00" routeLength="514.15" waitingTime="75.00" waitingCount="3" stopTime="0.00" timeLoss="128.48" rerouteNo="1" devices="tripinfo_flow_light_traffic_54.1 routing_flow_light_traffic_54.1 emissions_flow_light_traffic_54.1" vType="tricycle" speedFactor="1.00" vaporized="">
        <emissions CO_abs="4792.87" CO2_abs="277736.14" HC_abs="3659.34" PMx_abs="72.97" NOx_abs="281.84" fuel_abs="90058.03" electricity_abs="0.00"/>
    </tripinfo>
    <tripinfo id="flow_light_traffic_53.0" depart="39.00" departLane="440471861#6_1" departPos="2.10" departSpeed="0.00" departDelay="30.00" arrival="195.00" arrivalLane="140483224#12_2" arrivalPos="63.66" arrivalSpeed="17.46" duration="156.00" routeLength="515.15" waitingTime="81.00" waitingCount="5" stopTime="0.00" timeLoss="133.70" rerouteNo="1" devices="tripinfo_flow_light_traffic_53.0 routing_flow_light_traffic_53.0 emissions_flow_light_traffic_53.0" vType="motorcycle" speedFactor="0.98" vaporized="">