<?xml version="1.0" encoding="UTF-8"?>

<!-- generated on 2025-11-13 23:19:59 by Eclipse SUMO GUI Version 1.24.0
<sumoConfiguration xmlns:xsi="http://www.w3.org/2001/XMLSchema-instance" xsi:noNamespaceSchemaLocation="http://sumo.dlr.de/xsd/sumoConfiguration.xsd">

    <input>
        <net-file value="C:\Users\Sammy\Documents\THESIS\DRL_TrafficLight\Olivarez_traci\network\../network/map.net.xml"/>
        <route-files value="C:\Users\Sammy\Documents\THESIS\DRL_TrafficLight\Olivarez_traci\network\olivarez_flows_light.xml"/>
        <additional-files value="C:\Users\Sammy\Documents\THESIS\DRL_TrafficLight\Olivarez_traci\network\traffic.taz.xml,C:\Users\Sammy\Documents\THESIS\DRL_TrafficLight\Olivarez_traci\network\../additionals/detectors.add.xml,C:\Users\Sammy\Documents\THESIS\DRL_TrafficLight\Olivarez_traci\network\../additionals/map.poly.xml"/>
    </input>

    <output>
        <output-prefix value="light_traffic_"/>
        <emission-output value="C:\Users\Sammy\Documents\THESIS\DRL_TrafficLight\Olivarez_traci\network\emissions.xml"/>
        <summary-output value="C:\Users\Sammy\Documents\THESIS\DRL_TrafficLight\Olivarez_traci\network\summary.xml"/>
        <tripinfo-output value="C:\Users\Sammy\Documents\THESIS\DRL_TrafficLight\Olivarez_traci\network\tripinfo.xml"/>
    </output>

    <time>
        <begin value="0"/>
        <end value="14400"/>
        <step-length value="1"/>
    </time>

    <processing>
        <ignore-route-errors value="true"/>
        <lanechange.duration value="3"/>
    </processing>

    <routing>
        <routing-algorithm value="dijkstra"/>
        <device.rerouting.adaptation-steps value="18"/>
        <device.rerouting.adaptation-interval value="10"/>
    </routing>

    <report>
        <verbose value="true"/>
        <no-warnings value="false"/>
        <duration-log.statistics value="true"/>
    </report>

    <random_number>
        <seed value="34567"/>
    </random_number>

    <gui_only>
        <start value="true"/>
    </gui_only>

</sumoConfiguration>
-->

<tripinfos xmlns:xsi="http://www.w3.org/2001/XMLSchema-instance" xsi:noNamespaceSchemaLocation="http://sumo.dlr.de/xsd/tripinfo_file.xsd">
</tripinfos>
id="D2_1.0" depart="4.00" departLane="140483224#12_1" departPos="7.20" departSpeed="27.19" departDelay="0.00" arrival="28.00" arrivalLane="939610874_1" arrivalPos="50.72" arrivalSpeed="8.07" duration="24.00" routeLength="291.32" waitingTime="0.00" waitingCount="0" stopTime="0.00" timeLoss="1.63" rerouteNo="1" devices="tripinfo_D2_1.0 routing_D2_1.0 emissions_D2_1.0" vType="truck" speedFactor="0.98" vaporized="">
        <emissions CO_abs="19.28" CO2_abs="78061.89" HC_abs="1.83" PMx_abs="29.02" NOx_abs="40.53" fuel_abs="25090.28" electricity_abs="0.00"/>
    </tripinfo>
    <tripinfo id="D2_1.1" depart="5.00" departLane="140483224#12_1" departPos="2.30" departSpeed="25.82" departDelay="0.00" arrival="34.00" arrivalLane="939610874_1" arrivalPos="50.72" arrivalSpeed="6.15" duration="29.00" routeLength="296.22" waitingTime="0.00" waitingCount="0" stopTime="0.00" timeLoss="6.78" rerouteNo="1" devices="tripinfo_D2_1.1 routing_D2_1.1 emissions_D2_1.1" vType="motorcycle" speedFactor="1.01" vaporized="">
        <emissions CO_abs="1708.67" CO2_abs="33371.71" HC_abs="348.50" PMx_abs="6.81" NOx_abs="52.80" fuel_abs="10820.75" electricity_abs="0.00"/>
    </tripinfo>
    <tripinfo id="D2_1.2" depart="7.00" departLane="140483224#12_1" departPos="2.30" departSpeed="26.01" departDelay="0.00" arrival="37.00" arrivalLane="939610874_1" arrivalPos="50.72" arrivalSpeed="6.87" duration="30.00" routeLength="296.22" waitingTime="0.00" waitingCount="0" stopTime="0.00" timeLoss="6.18" rerouteNo="1" devices="tripinfo_D2_1.2 routing_D2_1.2 emissions_D2_1.2" vType="motorcycle" speedFactor="0.94" vaporized="">
        <emissions CO_abs="2028.01" CO2_abs="40950.48" HC_abs="457.89" PMx_abs="9.66" NOx_abs="55.10" fuel_abs="13278.42" electricity_abs="0.00"/>
    </tripinfo>
    <tripinfo id="B1_1.0" depart="5.00" departLane="939610874_1" departPos="5.10" departSpeed="8.71" departDelay="0.00" arrival="41.00" arrivalLane="-361256298#1_1" arrivalPos="36.33" arrivalSpeed="14.22" duration="36.00" routeLength="274.95" waitingTime="0.00" waitingCount="0" stopTime="0.00" timeLoss="6.08" rerouteNo="1" devices="tripinfo_B1_1.0 routing_B1_1.0 emissions_B1_1.0" vType="car" speedFactor="1.05" vaporized="">
        <emissions CO_abs="340.76" CO2_abs="81811.91" HC_abs="2.26" PMx_abs="6.53" NOx_abs="27.78" fuel_abs="26522.36" electricity_abs="0.00"/>
    </tripinfo>
    <tripinfo id="D3_1.0" depart="7.00" departLane="140483224#12_2" departPos="2.30" departSpeed="29.44" departDelay="0.00" arrival="43.00" arrivalLane="440471861#6_1" arrivalPos="125.31" arrivalSpeed="11.38" duration="36.00" routeLength="486.25" waitingTime="4.00" waitingCount="1" stopTime="0.00" timeLoss="17.10" rerouteNo="1" devices="tripinfo_D3_1.0 routing_D3_1.0 emissions_D3_1.0" vType="motorcycle" speedFactor="1.06" vaporized="">
        <emissions CO_abs="8610.70" CO2_abs="103184.77" HC_abs="1075.12" PMx_abs="16.88" NOx_abs="233.02" fuel_abs="33456.75" electricity_abs="0.00"/>
    </tripinfo>
    <tripinfo id="D2_1.3" depart="11.00" departLane="140483224#12_1" departPos="5.10" departSpeed="22.33" departDelay="0.00" arrival="45.00" arrivalLane="939610874_1" arrivalPos="50.72" arrivalSpeed="6.11" duration="34.00" routeLength="293.42" waitingTime="0.00" waitingCount="0" stopTime="0.00" timeLoss="5.64" rerouteNo="1" devices="tripinfo_D2_1.3 routing_D2_1.3 emissions_D2_1.3" vType="car" speedFactor="0.80" vaporized="">
        <emissions CO_abs="230.66" CO2_abs="52324.08" HC_abs="1.54" PMx_abs="4.34" NOx_abs="17.87" fuel_abs="16962.73" electricity_abs="0.00"/>
    </tripinfo>
    <tripinfo id="B1_1.1" depart="14.00" departLane="939610874_1" departPos="8.10" departSpeed="9.94" departDelay="0.00" arrival="45.00" arrivalLane="-361256298#1_1" arrivalPos="36.33" arrivalSpeed="14.21" duration="31.00" routeLength="271.95" waitingTime="0.00" waitingCount="0" stopTime="0.00" timeLoss="5.88" rerouteNo="1" devices="tripinfo_B1_1.1 routing_B1_1.1 emissions_B1_1.1" vType="jeep" speedFactor="1.19" vaporized="">
        <emissions CO_abs="342.06" CO2_abs="68538.73" HC_abs="2.27" PMx_abs="5.49" NOx_abs="23.25" fuel_abs="22219.33" electricity_abs="0.00"/>
    </tripinfo>
    <tripinfo id="D2_1.4" depart="13.00" departLane="140483224#12_1" departPos="5.10" departSpeed="24.10" departDelay="0.00" arrival="47.00" arrivalLane="939610874_1" arrivalPos="50.72" arrivalSpeed="7.98" duration="34.00" routeLength="293.42" waitingTime="0.00" waitingCount="0" stopTime="0.00" timeLoss="11.92" rerouteNo="1" devices="tripinfo_D2_1.4 routing_D2_1.4 emissions_D2_1.4" vType="car" speedFactor="1.04" vaporized="">
        <emissions CO_abs="239.61" CO2_abs="54440.27" HC_abs="1.62" PMx_abs="4.67" NOx_abs="17.84" fuel_abs="17648.76" electricity_abs="0.00"/>
    </tripinfo>
    <tripinfo id="B1_1.2" depart="23.00" departLane="939610874_1" departPos="2.30" departSpeed="0.33" departDelay="0.00" arrival="65.00" arrivalLane="-361256298#1_1" arrivalPos="36.33" arrivalSpeed="18.43" duration="42.00" routeLength="277.75" waitingTime="0.00" waitingCount="0" stopTime="0.00" timeLoss="10.16" rerouteNo="1" devices="tripinfo_B1_1.2 routing_B1_1.2 emissions_B1_1.2" vType="motorcycle" speedFactor="0.97" vaporized="">
        <emissions CO_abs="1392.95" CO2_abs="69907.10" HC_abs="790.13" PMx_abs="15.91" NOx_abs="84.82" fuel_abs="22667.56" electricity_abs="0.00"/>
    </tripinfo>
    <tripinfo id="A1_1.0" depart="12.00" departLane="-361256298#1_1" departPos="7.20" departSpeed="29.78" departDelay="0.00" arrival="80.00" arrivalLane="939610874_1" arrivalPos="50.72" arrivalSpeed="6.10" duration="68.00" routeLength="315.14" waitingTime="31.00" waitingCount="1" stopTime="0.00" timeLoss="45.24" rerouteNo="1" devices="tripinfo_A1_1.0 routing_A1_1.0 emissions_A1_1.0" vType="truck" speedFactor="1.07" vaporized="">
        <emissions CO_abs="70.86" CO2_abs="172737.49" HC_abs="5.29" PMx_abs="80.75" NOx_abs="43.83" fuel_abs="55511.44" electricity_abs="0.00"/>
    </tripinfo>
    <tripinfo id="B1_1.3" depart="39.00" departLane="939610874_1" departPos="7.20" departSpeed="3.81" departDelay="6.00" arrival="80.00" arrivalLane="-361256298#1_1" arrivalPos="36.33" arrivalSpeed="10.15" duration="41.00" routeLength="272.85" waitingTime="0.00" waitingCount="0" stopTime="0.00" timeLoss="11.12" rerouteNo="1" devices="tripinfo_B1_1.3 routing_B1_1.3 emissions_B1_1.3" vType="truck" speedFactor="1.02" vaporized="">
        <emissions CO_abs="55.01" CO2_abs="158168.83" HC_abs="3.95" PMx_abs="50.02" NOx_abs="64.57" fuel_abs="50830.33" electricity_abs="0.00"/>
    </tripinfo>
    <tripinfo id="B1_1.4" depart="41.00" departLane="939610874_1" departPos="2.30" departSpeed="3.28" departDelay="4.00" arrival="82.00" arrivalLane="-361256298#1_1" arrivalPos="36.33" arrivalSpeed="11.48" duration="41.00" routeLength="277.75" waitingTime="0.00" waitingCount="0" stopTime="0.00" timeLoss="14.68" rerouteNo="1" devices="tripinfo_B1_1.4 routing_B1_1.4 emissions_B1_1.4" vType="tricycle" speedFactor="1.16" vaporized="">
        <emissions CO_abs="646.82" CO2_abs="57688.31" HC_abs="708.77" PMx_abs="15.10" NOx_abs="53.82" fuel_abs="18705.91" electricity_abs="0.00"/>
    </tripinfo>
    <tripinfo id="B1_1.5" depart="51.00" departLane="939610874_1" departPos="5.10" departSpeed="7.81" departDelay="1.00" arrival="91.00" arrivalLane="-361256298#1_1" arrivalPos="36.33" arrivalSpeed="11.82" duration="40.00" routeLength="274.95" waitingTime="0.00" waitingCount="0" stopTime="0.00" timeLoss="7.24" rerouteNo="1" devices="tripinfo_B1_1.5 routing_B1_1.5 emissions_B1_1.5" vType="car" speedFactor="0.94" vaporized="">
        <emissions CO_abs="230.16" CO2_abs="73655.10" HC_abs="1.52" PMx_abs="5.37" NOx_abs="24.31" fuel_abs="23878.02" electricity_abs="0.00"/>
    </tripinfo>
    <tripinfo id="B1_1.6" depart="86.00" departLane="939610874_1" departPos="7.20" departSpeed="8.59" departDelay="0.00" arrival="121.00" arrivalLane="-361256298#1_1" arrivalPos="36.33" arrivalSpeed="9.31" duration="35.00" routeLength="272.85" waitingTime="0.00" waitingCount="0" stopTime="0.00" timeLoss="5.60" rerouteNo="1" devices="tripinfo_B1_1.6 routing_B1_1.6 emissions_B1_1.6" vType="truck" speedFactor="1.03" vaporized="">
        <emissions CO_abs="40.33" CO2_abs="120050.22" HC_abs="3.21" PMx_abs="43.80" NOx_abs="59.61" fuel_abs="38580.95" electricity_abs="0.00"/>
    </tripinfo>
    <tripinfo id="C2_1.0" depart="2.00" departLane="440471861#6_2" departPos="7.20" departSpeed="25.82" departDelay="0.00" arrival="131.00" arrivalLane="939610874_1" arrivalPos="50.72" arrivalSpeed="7.37" duration="129.00" routeLength="337.64" waitingTime="92.00" waitingCount="1" stopTime="0.00" timeLoss="102.97" rerouteNo="1" devices="tripinfo_C2_1.0 routing_C2_1.0 emissions_C2_1.0" vType="truck" speedFactor="0.93" vaporized="">
        <emissions CO_abs="138.14" CO2_abs="306484.49" HC_abs="11.19" PMx_abs="186.22" NOx_abs="70.69" fuel_abs="98491.81" electricity_abs="0.00"/>
    </tripinfo>
    <tripinfo id="B1_1.7" depart="100.00" departLane="939610874_1" departPos="5.10" departSpeed="8.10" departDelay="0.00" arrival="138.00" arrivalLane="-361256298#1_1" arrivalPos="36.33" arrivalSpeed="13.95" duration="38.00" routeLength="274.95" waitingTime="0.00" waitingCount="0" stopTime="0.00" timeLoss="5.96" rerouteNo="1" devices="tripinfo_B1_1.7 routing_B1_1.7 emissions_B1_1.7" vType="car" speedFactor="0.97" vaporized="">
        <emissions CO_abs="316.87" CO2_abs="85401.96" HC_abs="2.10" PMx_abs="6.70" NOx_abs="29.02" fuel_abs="27686.23" electricity_abs="0.00"/>
    </tripinfo>
    <tripinfo id="C2_1.1" depart="12.00" departLane="440471861#6_2" departPos="7.20" departSpeed="25.22" departDelay="0.00" arrival="140.00" arrivalLane="939610874_1" arrivalPos="50.72" arrivalSpeed="7.12" duration="128.00" routeLength="337.64" waitingTime="85.00" waitingCount="1" stopTime="0.00" timeLoss="101.64" rerouteNo="1" devices="tripinfo_C2_1.1 routing_C2_1.1 emissions_C2_1.1" vType="truck" speedFactor="0.91" vaporized="">
        <emissions CO_abs="132.51" CO2_abs="274627.76" HC_abs="10.48" PMx_abs="173.86" NOx_abs="58.30" fuel_abs="88252.08" electricity_abs="0.00"/>
    </tripinfo>
    <tripinfo id="C2_1.2" depart="20.00" departLane="440471861#6_2" departPos="2.30" departSpeed="27.44" departDelay="0.00" arrival="142.00" arrivalLane="939610874_1" arrivalPos="50.72" arrivalSpeed="7.55" duration="122.00" routeLength="342.54" waitingTime="82.00" waitingCount="1" stopTime="0.00" timeLoss="97.54" rerouteNo="1" devices="tripinfo_C2_1.2 routing_C2_1.2 emissions_C2_1.2" vType="tricycle" speedFactor="0.99" vaporized="">
        <emissions CO_abs="2543.06" CO2_abs="174885.86" HC_abs="2602.38" PMx_abs="54.93" NOx_abs="112.30" fuel_abs="56709.54" electricity_abs="0.00"/>
    </tripinfo>
    <tripinfo id="D2_1.5" depart="32.00" departLane="140483224#12_1" departPos="7.20" departSpeed="26.03" departDelay="0.00" arrival="165.00" arrivalLane="939610874_1" arrivalPos="50.72" arrivalSpeed="8.34" duration="133.00" routeLength="291.32" waitingTime="93.00" waitingCount="2" stopTime="0.00" timeLoss="111.27" rerouteNo="1" devices="tripinfo_D2_1.5 routing_D2_1.5 emissions_D2_1.5" vType="truck" speedFactor="1.02" vaporized="">
        <emissions CO_abs="145.40" CO2_abs="305164.58" HC_abs="11.23" PMx_abs="181.80" NOx_abs="57.65" fuel_abs="98064.23" electricity_abs="0.00"/>
    </tripinfo>
    <tripinfo id="D2_1.6" depart="40.00" departLane="140483224#12_1" departPos="5.10" departSpeed="26.42" departDelay="0.00" arrival="167.00" arrivalLane="939610874_1" arrivalPos="50.72" arrivalSpeed="8.35" duration="127.00" routeLength="293.42" waitingTime="85.00" waitingCount="2" stopTime="0.00" timeLoss="107.00" rerouteNo="1" devices="tripinfo_D2_1.6 routing_D2_1.6 emissions_D2_1.6" vType="car" speedFactor="1.11" vaporized="">
        <emissions CO_abs="189.96" CO2_abs="204624.41" HC_abs="1.28" PMx_abs="5.00" NOx_abs="76.65" fuel_abs="66337.48" electricity_abs="0.00"/>
    </tripinfo>
    <tripinfo id="A3_1.0" depart="1.00" departLane="-361256298#1_2" departPos="5.10" departSpeed="27.07" departDelay="0.00" arrival="168.00" arrivalLane="140483224#12_2" arrivalPos="63.66" arrivalSpeed="11.54" duration="167.00" routeLength="507.51" waitingTime="107.00" waitingCount="3" stopTime="0.00" timeLoss="146.08" rerouteNo="1" devices="tripinfo_A3_1.0 routing_A3_1.0 emissions_A3_1.0" vType="car" speedFactor="0.97" vaporized="">
        <emissions CO_abs="1215.79" CO2_abs="349337.74" HC_abs="8.05" PMx_abs="10.48" NOx_abs="126.90" fuel_abs="113251.16" electricity_abs="0.00"/>
    </tripinfo>
    <tripinfo id="A3_1.2" depart="7.00" departLane="-361256298#1_2" departPos="8.10" departSpeed="25.13" departDelay="0.00" arrival="170.00" arrivalLane="140483224#12_2" arrivalPos="63.66" arrivalSpeed="12.92" duration="163.00" routeLength="504.51" waitingTime="98.00" waitingCount="3" stopTime="0.00" timeLoss="139.42" rerouteNo="1" devices="tripinfo_A3_1.2 routing_A3_1.2 emissions_A3_1.2" vType="jeep" speedFactor="0.90" vaporized="">
        <emissions CO_abs="942.64" CO2_abs="319774.76" HC_abs="6.26" PMx_abs="10.24" NOx_abs="116.04" fuel_abs="103667.28" electricity_abs="0.00"/>
    </tripinfo>
    <tripinfo id="A3_1.1" depart="2.00" departLane="-361256298#1_2" departPos="5.10" departSpeed="25.13" departDelay="0.00" arrival="171.00" arrivalLane="140483224#12_1" arrivalPos="63.66" arrivalSpeed="12.00" duration="169.00" routeLength="507.51" waitingTime="102.00" waitingCount="4" stopTime="0.00" timeLoss="147.95" rerouteNo="1" devices="tripinfo_A3_1.1 routing_A3_1.1 emissions_A3_1.1" vType="car" speedFactor="0.98" vaporized="">
        <emissions CO_abs="1126.70" CO2_abs="341210.33" HC_abs="7.49" PMx_abs="11.43" NOx_abs="124.77" fuel_abs="110616.51" electricity_abs="0.00"/>
    </tripinfo>
    <tripinfo id="C1_1.0" depart="1.00" departLane="440471861#6_2" departPos="7.20" departSpeed="28.07" departDelay="0.00" arrival="172.00" arrivalLane="-361256298#1_1" arrivalPos="36.33" arrivalSpeed="4.59" duration="171.00" routeLength="429.18" waitingTime="117.00" waitingCount="3" stopTime="0.00" timeLoss="154.78" rerouteNo="1" devices="tripinfo_C1_1.0 routing_C1_1.0 emissions_C1_1.0" vType="truck" speedFactor="1.01" vaporized="">
        <emissions CO_abs="201.05" CO2_abs="491369.80" HC_abs="15.69" PMx_abs="237.72" NOx_abs="97.44" fuel_abs="157903.96" electricity_abs="0.00"/>
    </tripinfo>
    <tripinfo id="B3_1.1" depart="31.00" departLane="939610874_1" departPos="8.10" departSpeed="2.56" departDelay="5.00" arrival="172.00" arrivalLane="140483224#12_2" arrivalPos="63.66" arrivalSpeed="13.32" duration="141.00" routeLength="517.55" waitingTime="59.00" waitingCount="2" stopTime="0.00" timeLoss="99.24" rerouteNo="1" devices="tripinfo_B3_1.1 routing_B3_1.1 emissions_B3_1.1" vType="jeep" speedFactor="0.86" vaporized="">
        <emissions CO_abs="1109.75" CO2_abs="299271.02" HC_abs="7.34" PMx_abs="11.72" NOx_abs="104.82" fuel_abs="97019.60" electricity_abs="0.00"/>
    </tripinfo>
    <tripinfo id="B3_1.0" depart="17.00" departLane="939610874_1" departPos="5.10" departSpeed="9.72" departDelay="0.00" arrival="173.00" arrivalLane="140483224#12_1" arrivalPos="63.66" arrivalSpeed="13.35" duration="156.00" routeLength="520.55" waitingTime="86.00" waitingCount="3" stopTime="0.00" timeLoss="125.26" rerouteNo="1" devices="tripinfo_B3_1.0 routing_B3_1.0 emissions_B3_1.0" vType="car" speedFactor="1.17" vaporized="">
        <emissions CO_abs="1035.73" CO2_abs="318462.67" HC_abs="6.86" PMx_abs="11.95" NOx_abs="114.87" fuel_abs="103241.85" electricity_abs="0.00"/>
    </tripinfo>
    <tripinfo id="B3_1.3" depart="62.00" departLane="939610874_1" departPos="7.20" departSpeed="2.58" departDelay="3.00" arrival="174.00" arrivalLane="140483224#12_2" arrivalPos="63.66" arrivalSpeed="13.84" duration="112.00" routeLength="518.45" waitingTime="44.00" waitingCount="1" stopTime="0.00" timeLoss="76.95" rerouteNo="1" devices="tripinfo_B3_1.3 routing_B3_1.3 emissions_B3_1.3" vType="truck" speedFactor="1.02" vaporized="">
        <emissions CO_abs="148.23" CO2_abs="468130.26" HC_abs="11.78" PMx_abs="151.48" NOx_abs="141.59" fuel_abs="150440.73" electricity_abs="0.00"/>
    </tripinfo>
    <tripinfo id="D2_1.7" depart="47.00" departLane="140483224#12_1" departPos="5.10" departSpeed="23.18" departDelay="0.00" arrival="175.00" arrivalLane="939610874_1" arrivalPos="50.72" arrivalSpeed="5.81" duration="128.00" routeLength="293.42" waitingTime="79.00" waitingCount="2" stopTime="0.00" timeLoss="101.14" rerouteNo="1" devices="tripinfo_D2_1.7 routing_D2_1.7 emissions_D2_1.7" vType="car" speedFactor="0.83" vaporized="">
        <emissions CO_abs="134.52" CO2_abs="197432.65" HC_abs="0.89" PMx_abs="4.48" NOx_abs="73.11" fuel_abs="64005.94" electricity_abs="0.00"/>
    </tripinfo>
    <tripinfo id="B3_1.2" depart="57.00" departLane="939610874_1" departPos="5.10" departSpeed="7.16" departDelay="0.00" arrival="175.00" arrivalLane="140483224#12_1" arrivalPos="63.66" arrivalSpeed="15.56" duration="118.00" routeLength="520.55" waitingTime="44.00" waitingCount="2" stopTime="0.00" timeLoss="75.75" rerouteNo="1" devices="tripinfo_B3_1.2 routing_B3_1.2 emissions_B3_1.2" vType="car" speedFactor="0.86" vaporized="">
        <emissions CO_abs="1409.89" CO2_abs="271474.36" HC_abs="9.32" PMx_abs="12.03" NOx_abs="96.95" fuel_abs="88008.16" electricity_abs="0.00"/>
    </tripinfo>
    <tripinfo id="C3_1.2" depart="28.00" departLane="440471861#6_1" departPos="5.10" departSpeed="26.62" departDelay="0.00" arrival="176.00" arrivalLane="140483224#12_2" arrivalPos="63.66" arrivalSpeed="16.71" duration="148.00" routeLength="512.15" waitingTime="88.00" waitingCount="3" stopTime="0.00" timeLoss="125.51" rerouteNo="1" devices="tripinfo_C3_1.2 routing_C3_1.2 emissions_C3_1.2" vType="car" speedFactor="0.96" vaporized="">
        <emissions CO_abs="1422.97" CO2_abs="336077.22" HC_abs="9.41" PMx_abs="11.91" NOx_abs="122.59" fuel_abs="108952.10" electricity_abs="0.00"/>
    </tripinfo>
    <tripinfo id="C3_1.0" depart="9.00" departLane="440471861#6_1" departPos="8.10" departSpeed="29.01" departDelay="0.00" arrival="177.00" arrivalLane="140483224#12_2" arrivalPos="63.66" arrivalSpeed="15.67" duration="168.00" routeLength="509.15" waitingTime="108.00" waitingCount="3" stopTime="0.00" timeLoss="148.54" rerouteNo="1" devices="tripinfo_C3_1.0 routing_C3_1.0 emissions_C3_1.0" vType="jeep" speedFactor="1.04" vaporized="">
        <emissions CO_abs="1293.71" CO2_abs="354339.08" HC_abs="8.58" PMx_abs="11.33" NOx_abs="131.47" fuel_abs="114872.74" electricity_abs="0.00"/>
    </tripinfo>
    <tripinfo id="D2_1.8" depart="50.00" departLane="140483224#12_1" departPos="2.30" departSpeed="27.00" departDelay="0.00" arrival="177.00" arrivalLane="939610874_1" arrivalPos="50.72" arrivalSpeed="6.55" duration="127.00" routeLength="296.22" waitingTime="78.00" waitingCount="2" stopTime="0.00" timeLoss="104.35" rerouteNo="1" devices="tripinfo_D2_1.8 routing_D2_1.8 emissions_D2_1.8" vType="tricycle" speedFactor="0.97" vaporized="">
        <emissions CO_abs="1097.08" CO2_abs="172687.47" HC_abs="2576.58" PMx_abs="54.41" NOx_abs="97.90" fuel_abs="55996.65" electricity_abs="0.00"/>
    </tripinfo>
    <tripinfo id="D2_1.9" depart="62.00" departLane="140483224#12_1" departPos="8.10" departSpeed="21.16" departDelay="0.00" arrival="179.00" arrivalLane="939610874_1" arrivalPos="50.72" arrivalSpeed="7.42" duration="117.00" routeLength="290.42" waitingTime="71.00" waitingCount="2" stopTime="0.00" timeLoss="92.89" rerouteNo="1" devices="tripinfo_D2_1.9 routing_D2_1.9 emissions_D2_1.9" vType="jeep" speedFactor="0.91" vaporized="">
        <emissions CO_abs="305.83" CO2_abs="194145.32" HC_abs="2.02" PMx_abs="4.06" NOx_abs="69.96" fuel_abs="62939.94" electricity_abs="0.00"/>
    </tripinfo>
    <tripinfo id="C3_1.1" depart="18.00" departLane="440471861#6_1" departPos="5.10" departSpeed="27.78" departDelay="0.00" arrival="181.00" arrivalLane="140483224#12_2" arrivalPos="63.66" arrivalSpeed="19.23" duration="163.00" routeLength="512.15" waitingTime="101.00" waitingCount="2" stopTime="0.00" timeLoss="142.75" rerouteNo="1" devices="tripinfo_C3_1.1 routing_C3_1.1 emissions_C3_1.1" vType="car" speedFactor="1.00" vaporized="">
        <emissions CO_abs="1419.46" CO2_abs="358189.22" HC_abs="9.38" PMx_abs="11.26" NOx_abs="130.88" fuel_abs="116120.62" electricity_abs="0.00"/>
    </tripinfo>
    <tripinfo id="D1_1.0" depart="26.00" departLane="140483224#12_1" departPos="2.30" departSpeed="28.61" departDelay="0.00" arrival="181.00" arrivalLane="-361256298#1_1" arrivalPos="36.33" arrivalSpeed="6.04" duration="155.00" routeLength="372.24" waitingTime="102.00" waitingCount="3" stopTime="0.00" timeLoss="139.41" rerouteNo="1" devices="tripinfo_D1_1.0 routing_D1_1.0 emissions_D1_1.0" vType="tricycle" speedFactor="1.03" vaporized="">
        <emissions CO_abs="2267.40" CO2_abs="237501.03" HC_abs="3494.28" PMx_abs="73.17" NOx_abs="154.90" fuel_abs="77013.23" electricity_abs="0.00"/>
    </tripinfo>
    <tripinfo id="D2_1.10" depart="64.00" departLane="140483224#12_1" departPos="8.10" departSpeed="17.57" departDelay="0.00" arrival="182.00" arrivalLane="939610874_1" arrivalPos="50.72" arrivalSpeed="6.99" duration="118.00" routeLength="290.42" waitingTime="75.00" waitingCount="2" stopTime="0.00" timeLoss="95.01" rerouteNo="1" devices="tripinfo_D2_1.10 routing_D2_1.10 emissions_D2_1.10" vType="jeep" speedFactor="0.96" vaporized="">
        <emissions CO_abs="295.37" CO2_abs="198542.88" HC_abs="1.95" PMx_abs="5.05" NOx_abs="73.07" fuel_abs="64365.67" electricity_abs="0.00"/>
    </tripinfo>
    <tripinfo id="C1_1.1" depart="4.00" departLane="440471861#6_2" departPos="2.30" departSpeed="26.78" departDelay="0.00" arrival="183.00" arrivalLane="-361256298#1_1" arrivalPos="36.33" arrivalSpeed="7.85" duration="179.00" routeLength="434.08" waitingTime="118.00" waitingCount="4" stopTime="0.00" timeLoss="161.08" rerouteNo="1" devices="tripinfo_C1_1.1 routing_C1_1.1 emissions_C1_1.1" vType="tricycle" speedFactor="0.96" vaporized="">
        <emissions CO_abs="3081.84" CO2_abs="275439.14" HC_abs="4012.21" PMx_abs="84.30" NOx_abs="177.58" fuel_abs="89315.20" electricity_abs="0.00"/>
    </tripinfo>
    <tripinfo id="C1_1.3" depart="8.00" departLane="440471861#6_2" departPos="2.30" departSpeed="23.63" departDelay="0.00" arrival="184.00" arrivalLane="-361256298#1_1" arrivalPos="36.33" arrivalSpeed="11.20" duration="176.00" routeLength="434.08" waitingTime="105.00" waitingCount="2" stopTime="0.00" timeLoss="159.17" rerouteNo="1" devices="tripinfo_C1_1.3 routing_C1_1.3 emissions_C1_1.3" vType="motorcycle" speedFactor="1.03" vaporized="">
        <emissions CO_abs="1793.92" CO2_abs="249833.80" HC_abs="3670.13" PMx_abs="76.46" NOx_abs="158.80" fuel_abs="81012.14" electricity_abs="0.00"/>
    </tripinfo>
    <tripinfo id="D2_1.11" depart="69.00" departLane="140483224#12_1" departPos="7.20" departSpeed="11.89" departDelay="0.00" arrival="185.00" arrivalLane="939610874_1" arrivalPos="50.72" arrivalSpeed="7.55" duration="116.00" routeLength="291.32" waitingTime="69.00" waitingCount="2" stopTime="0.00" timeLoss="92.38" rerouteNo="1" devices="tripinfo_D2_1.11 routing_D2_1.11 emissions_D2_1.11" vType="truck" speedFactor="0.96" vaporized="">
        <emissions CO_abs="133.49" CO2_abs="320900.56" HC_abs="10.34" PMx_abs="154.62" NOx_abs="73.15" fuel_abs="103122.20" electricity_abs="0.00"/>
    </tripinfo>
    <tripinfo id="C3_1.3" depart="31.00" departLane="440471861#6_1" departPos="12.10" departSpeed="24.58" departDelay="0.00" arrival="188.00" arrivalLane="140483224#12_2" arrivalPos="63.66" arrivalSpeed="12.73" duration="157.00" routeLength="505.15" waitingTime="89.00" waitingCount="2" stopTime="0.00" timeLoss="136.18" rerouteNo="1" devices="tripinfo_C3_1.3 routing_C3_1.3 emissions_C3_1.3" vType="bus" speedFactor="1.00" vaporized="">
        <emissions CO_abs="357.79" CO2_abs="1128916.60" HC_abs="24.93" PMx_abs="215.32" NOx_abs="663.29" fuel_abs="362800.79" electricity_abs="0.00"/>
    </tripinfo>
    <tripinfo id="C1_1.2" depart="7.00" departLane="440471861#6_2" departPos="5.10" departSpeed="25.54" departDelay="0.00" arrival="190.00" arrivalLane="-361256298#1_1" arrivalPos="36.33" arrivalSpeed="5.23" duration="183.00" routeLength="431.28" waitingTime="115.00" waitingCount="4" stopTime="0.00" timeLoss="164.78" rerouteNo="1" devices="tripinfo_C1_1.2 routing_C1_1.2 emissions_C1_1.2" vType="car" speedFactor="0.92" vaporized="">
        <emissions CO_abs="496.69" CO2_abs="319255.98" HC_abs="3.30" PMx_abs="7.12" NOx_abs="116.24" fuel_abs="103499.53" electricity_abs="0.00"/>
    </tripinfo>
    <tripinfo id="C3_1.4" depart="32.00" departLane="440471861#6_1" departPos="5.10" departSpeed="23.32" departDelay="0.00" arrival="190.00" arrivalLane="140483224#12_2" arrivalPos="63.66" arrivalSpeed="16.22" duration="158.00" routeLength="512.15" waitingTime="86.00" waitingCount="2" stopTime="0.00" timeLoss="137.91" rerouteNo="1" devices="tripinfo_C3_1.4 routing_C3_1.4 emissions_C3_1.4" vType="car" speedFactor="1.01" vaporized="">
        <emissions CO_abs="861.74" CO2_abs="309440.28" HC_abs="5.70" PMx_abs="11.10" NOx_abs="111.78" fuel_abs="100317.06" electricity_abs="0.00"/>
    </tripinfo>
    <tripinfo id="D1_1.1" depart="55.00" departLane="140483224#12_1" departPos="5.10" departSpeed="23.00" departDelay="0.00" arrival="192.00" arrivalLane="-361256298#1_1" arrivalPos="36.33" arrivalSpeed="7.95" duration="137.00" routeLength="369.44" waitingTime="76.00" waitingCount="3" stopTime="0.00" timeLoss="120.56" rerouteNo="1" devices="tripinfo_D1_1.1 routing_D1_1.1 emissions_D1_1.1" vType="car" speedFactor="0.96" vaporized="">
        <emissions CO_abs="435.58" CO2_abs="237486.20" HC_abs="2.88" PMx_abs="6.36" NOx_abs="85.69" fuel_abs="76990.52" electricity_abs="0.00"/>
    </tripinfo>
    <tripinfo id="A1_1.1" depart="29.00" departLane="-361256298#1_1" departPos="5.10" departSpeed="25.35" departDelay="0.00" arrival="217.00" arrivalLane="939610874_1" arrivalPos="50.72" arrivalSpeed="6.73" duration="188.00" routeLength="317.24" waitingTime="149.00" waitingCount="2" stopTime="0.00" timeLoss="161.32" rerouteNo="1" devices="tripinfo_A1_1.1 routing_A1_1.1 emissions_A1_1.1" vType="car" speedFactor="0.91" vaporized="">
        <emissions CO_abs="298.90" CO2_abs="298947.09" HC_abs="1.99" PMx_abs="4.67" NOx_abs="115.07" fuel_abs="96916.29" electricity_abs="0.00"/>
    </tripinfo>
    <tripinfo id="A1_1.2" depart="39.00" departLane="-361256298#1_1" departPos="8.10" departSpeed="8.19" departDelay="3.00" arrival="219.00" arrivalLane="939610874_1" arrivalPos="50.72" arrivalSpeed="8.96" duration="180.00" routeLength="314.24" waitingTime="135.00" waitingCount="2" stopTime="0.00" timeLoss="157.44" rerouteNo="1" devices="tripinfo_A1_1.2 routing_A1_1.2 emissions_A1_1.2" vType="jeep" speedFactor="1.10" vaporized="">
        <emissions CO_abs="600.46" CO2_abs="326511.23" HC_abs="3.96" PMx_abs="6.48" NOx_abs="121.36" fuel_abs="105851.79" electricity_abs="0.00"/>
    </tripinfo>
    <tripinfo id="A1_1.3" depart="49.00" departLane="-361256298#1_1" departPos="8.10" departSpeed="23.21" departDelay="0.00" arrival="221.00" arrivalLane="939610874_1" arrivalPos="50.72" arrivalSpeed="7.80" duration="172.00" routeLength="314.24" waitingTime="127.00" waitingCount="2" stopTime="0.00" timeLoss="148.18" rerouteNo="1" devices="tripinfo_A1_1.3 routing_A1_1.3 emissions_A1_1.3" vType="jeep" speedFactor="1.02" vaporized="">
        <emissions CO_abs="368.91" CO2_abs="288272.00" HC_abs="2.43" PMx_abs="4.78" NOx_abs="107.32" fuel_abs="93455.20" electricity_abs="0.00"/>
    </tripinfo>