<?xml version="1.0" encoding="UTF-8"?>

<!-- generated on 2026-02-21 15:15:19 by Eclipse SUMO sumo Version 1.24.0
<sumoConfiguration xmlns:xsi="http://www.w3.org/2001/XMLSchema-instance" xsi:noNamespaceSchemaLocation="http://sumo.dlr.de/xsd/sumoConfiguration.xsd">

    <input>
        <net-file value="Balibago_traci/network/balibago_signalized.net.xml"/>
        <route-files value="Balibago_traci/demand/flows_jam_traffic.rou.xml"/>
        <additional-files value="Balibago_traci/additionals/balibago.poly.xml,Balibago_traci/ additionals/balibago.add.xml"/>
    </input>

    <output>
        <tripinfo-output value="Balibago_traci/output_NoDRL/SD_NoDRL_jam_trips.xml"/>
        <statistic-output value="Balibago_traci/output_NoDRL/SD_NoDRL_jam_stats.xml"/>
    </output>

    <time>
        <begin value="0"/>
        <end value="10800"/>
        <step-length value="0.1"/>
    </time>

    <processing>
        <lateral-resolution value="0.1"/>
        <collision.action value="none"/>
        <collision.check-junctions value="false"/>
        <collision.mingap-factor value="0"/>
    </processing>

    <report>
        <no-warnings value="true"/>
    </report>

    <traci_server>
        <remote-port value="62617"/>
    </traci_server>

    <gui_only>
        <delay value="0"/>
    </gui_only>

</sumoConfiguration>
-->

<tripinfos xmlns:xsi="http://www.w3.org/2001/XMLSchema-instance" xsi:noNamespaceSchemaLocation="http://sumo.dlr.de/xsd/tripinfo_file.xsd">
    <tripinfo id="BalibagotoNuvali.0" depart="9.20" departLane="777619905_1" departPos="5.10" departPosLat="0.00" departSpeed="0.00" departDelay="0.00" arrival="88.40" arrivalLane="145507700#3_1" arrivalPos="783.31" arrivalPosLat="-0.00" arrivalSpeed="27.75" duration="79.20" routeLength="1312.87" waitingTime="0.00" waitingCount="0" stopTime="0.00" timeLoss="26.14" rerouteNo="1" devices="tripinfo_BalibagotoNuvali.0 routing_BalibagotoNuvali.0" vType="bus" speedFactor="1.00" vaporized=""/>
    <tripinfo id="NuvalitoBinan.0" depart="0.70" departLane="-145507700#3_1" departPos="2.30" departPosLat="0.00" departSpeed="25.95" departDelay="0.00" arrival="91.20" arrivalLane="-553887793#0_2" arrivalPos="201.31" arrivalPosLat="0.00" arrivalSpeed="25.94" duration="90.50" routeLength="2096.19" waitingTime="0.00" waitingCount="0" stopTime="0.00" timeLoss="8.31" rerouteNo="1" devices="tripinfo_NuvalitoBinan.0 routing_NuvalitoBinan.0" vType="tricycle" speedFactor="0.93" vaporized=""/>
    <personinfo id="JollibeetoPalengke.0" depart="0.00" type="ped" speedFactor="1.06" duration="118.90" waitingTime="0.00" timeLoss="12.07" traveltime="118.90">
        <walk depart="0.00" departPos="10.42" arrival="118.90" arrivalPos="27.04" duration="118.90" routeLength="157.27" timeLoss="12.07" maxSpeed="1.47" waitingTime="0.00"/>
    </personinfo>
    <tripinfo id="NuvalitoBalibago.0" depart="8.30" departLane="-145507700#3_1" departPos="2.30" departPosLat="0.00" departSpeed="32.64" departDelay="0.00" arrival="122.60" arrivalLane="32083201#1_1" arrivalPos="58.53" arrivalPosLat="0.00" arrivalSpeed="16.23" duration="114.30" routeLength="2060.89" waitingTime="0.00" waitingCount="0" stopTime="0.00" timeLoss="24.02" rerouteNo="1" devices="tripinfo_NuvalitoBalibago.0 routing_NuvalitoBalibago.0" vType="tricycle" speedFactor="1.17" vaporized=""/>
    <personinfo id="PalengketoJollibee.0" depart="0.00" type="ped" speedFactor="1.07" duration="123.10" waitingTime="0.00" timeLoss="12.41" traveltime="123.10">
        <walk depart="0.00" departPos="25.00" arrival="123.10" arrivalPos="5.21" duration="123.10" routeLength="164.52" timeLoss="12.41" maxSpeed="1.49" waitingTime="0.00"/>
    </personinfo>
    <personinfo id="JollibeetoPalengke.1" depart="48.00" type="ped" speedFactor="0.94" duration="140.60" waitingTime="6.30" timeLoss="19.92" traveltime="140.60">
        <walk depart="48.00" departPos="10.42" arrival="188.60" arrivalPos="27.04" duration="140.60" routeLength="157.27" timeLoss="19.92" maxSpeed="1.30" waitingTime="6.30"/>
    </personinfo>
    <personinfo id="PalengketoJollibee.1" depart="48.00" type="ped" speedFactor="0.94" duration="140.60" waitingTime="0.00" timeLoss="14.21" traveltime="140.60">
        <walk depart="48.00" departPos="25.00" arrival="188.60" arrivalPos="5.21" duration="140.60" routeLength="164.52" timeLoss="14.21" maxSpeed="1.30" waitingTime="0.00"/>
    </personinfo>
    <tripinfo id="NuvalitoBalibago.1" depart="68.00" departLane="-145507700#3_1" departPos="8.10" departPosLat="0.00" departSpeed="27.78" departDelay="0.00" arrival="208.40" arrivalLane="32083201#1_1" arrivalPos="58.53" arrivalPosLat="0.00" arrivalSpeed="13.87" duration="140.40" routeLength="2055.09" waitingTime="0.00" waitingCount="0" stopTime="0.00" timeLoss="34.58" rerouteNo="1" devices="tripinfo_NuvalitoBalibago.1 routing_NuvalitoBalibago.1" vType="jeep" speedFactor="1.00" vaporized=""/>
    <tripinfo id="BalibagotoNuvali.1" depart="139.30" departLane="777619905_1" departPos="5.10" departPosLat="0.00" departSpeed="0.00" departDelay="0.00" arrival="215.90" arrivalLane="145507700#3_1" arrivalPos="783.31" arrivalPosLat="-0.00" arrivalSpeed="27.76" duration="76.60" routeLength="1312.87" waitingTime="0.00" waitingCount="0" stopTime="0.00" timeLoss="23.52" rerouteNo="1" devices="tripinfo_BalibagotoNuvali.1 routing_BalibagotoNuvali.1" vType="jeep" speedFactor="1.00" vaporized=""/>
    <personinfo id="JollibeetoPalengke.2" depart="96.00" type="ped" speedFactor="1.01" duration="124.80" waitingTime="0.00" timeLoss="12.73" traveltime="124.80">
        <walk depart="96.00" departPos="10.42" arrival="220.80" arrivalPos="27.04" duration="124.80" routeLength="157.27" timeLoss="12.73" maxSpeed="1.40" waitingTime="0.00"/>
    </personinfo>
    <tripinfo id="BalibagotoBinan.0" depart="13.70" departLane="145507698_1" departPos="7.55" departPosLat="0.00" departSpeed="0.00" departDelay="0.00" arrival="223.60" arrivalLane="-553887793#0_2" arrivalPos="201.31" arrivalPosLat="0.00" arrivalSpeed="27.76" duration="209.90" routeLength="1685.56" waitingTime="66.40" waitingCount="1" stopTime="0.00" timeLoss="119.38" rerouteNo="1" devices="tripinfo_BalibagotoBinan.0 routing_BalibagotoBinan.0" vType="bus" speedFactor="1.00" vaporized=""/>
    <tripinfo id="CalambatoBinan.0" depart="32.70" departLane="185930141#0_1" departPos="8.10" departPosLat="0.00" departSpeed="27.78" departDelay="0.00" arrival="223.80" arrivalLane="-553887793#0_1" arrivalPos="201.31" arrivalPosLat="0.00" arrivalSpeed="27.77" duration="191.10" routeLength="1504.67" waitingTime="110.50" waitingCount="1" stopTime="0.00" timeLoss="136.90" rerouteNo="1" devices="tripinfo_CalambatoBinan.0 routing_CalambatoBinan.0" vType="jeep" speedFactor="1.00" vaporized=""/>
    <tripinfo id="BalibagotoBinan.1" depart="37.20" departLane="145507698_1" departPos="2.30" departPosLat="0.00" departSpeed="9.75" departDelay="0.00" arrival="225.10" arrivalLane="-553887793#0_2" arrivalPos="201.31" arrivalPosLat="0.00" arrivalSpeed="27.99" duration="187.90" routeLength="1690.81" waitingTime="62.50" waitingCount="1" stopTime="0.00" timeLoss="98.10" rerouteNo="1" devices="tripinfo_BalibagotoBinan.1 routing_BalibagotoBinan.1" vType="tricycle" speedFactor="1.01" vaporized=""/>
    <personinfo id="PalengketoJollibee.2" depart="96.00" type="ped" speedFactor="0.98" duration="134.50" waitingTime="0.00" timeLoss="13.71" traveltime="134.50">
        <walk depart="96.00" departPos="25.00" arrival="230.50" arrivalPos="5.21" duration="134.50" routeLength="164.52" timeLoss="13.71" maxSpeed="1.36" waitingTime="0.00"/>
    </personinfo>
    <tripinfo id="CalambatoBalibago.0" depart="150.70" departLane="185930141#0_2" departPos="12.10" departPosLat="0.00" departSpeed="27.78" departDelay="0.00" arrival="237.00" arrivalLane="89908334_1" arrivalPos="36.84" arrivalPosLat="0.00" arrivalSpeed="8.90" duration="86.30" routeLength="904.17" waitingTime="15.90" waitingCount="1" stopTime="0.00" timeLoss="45.17" rerouteNo="1" devices="tripinfo_CalambatoBalibago.0 routing_CalambatoBalibago.0" vType="bus" speedFactor="1.00" vaporized=""/>
    <tripinfo id="NuvalitoCalamba.0" depart="45.30" departLane="-145507700#3_1" departPos="2.30" departPosLat="0.00" departSpeed="26.95" departDelay="0.00" arrival="255.80" arrivalLane="-185930141#0_1" arrivalPos="428.88" arrivalPosLat="-0.00" arrivalSpeed="26.89" duration="210.50" routeLength="2324.56" waitingTime="100.10" waitingCount="1" stopTime="0.00" timeLoss="123.04" rerouteNo="1" devices="tripinfo_NuvalitoCalamba.0 routing_NuvalitoCalamba.0" vType="tricycle" speedFactor="0.97" vaporized=""/>
    <tripinfo id="CalambatoNuvali.0" depart="49.20" departLane="185930141#0_2" departPos="2.30" departPosLat="0.00" departSpeed="22.58" departDelay="0.00" arrival="256.00" arrivalLane="145507700#3_1" arrivalPos="783.31" arrivalPosLat="-0.00" arrivalSpeed="22.47" duration="206.80" routeLength="2335.67" waitingTime="95.00" waitingCount="1" stopTime="0.00" timeLoss="101.36" rerouteNo="1" devices="tripinfo_CalambatoNuvali.0 routing_CalambatoNuvali.0" vType="motorcycle" speedFactor="0.81" vaporized=""/>
    <tripinfo id="CalambatoBalibago.1" depart="194.30" departLane="185930141#0_2" departPos="8.10" departPosLat="0.00" departSpeed="27.78" departDelay="0.00" arrival="258.70" arrivalLane="89908334_1" arrivalPos="36.84" arrivalPosLat="0.00" arrivalSpeed="8.83" duration="64.40" routeLength="908.17" waitingTime="0.00" waitingCount="0" stopTime="0.00" timeLoss="23.04" rerouteNo="1" devices="tripinfo_CalambatoBalibago.1 routing_CalambatoBalibago.1" vType="jeep" speedFactor="1.00" vaporized=""/>
    <personinfo id="JollibeetoPalengke.3" depart="144.00" type="ped" speedFactor="1.08" duration="116.60" waitingTime="0.00" timeLoss="12.01" traveltime="116.60">
        <walk depart="144.00" departPos="10.42" arrival="260.60" arrivalPos="27.04" duration="116.60" routeLength="157.27" timeLoss="12.01" maxSpeed="1.50" waitingTime="0.00"/>
    </personinfo>
    <tripinfo id="BalibagotoCalamba.0" depart="40.40" departLane="145507698_1" departPos="7.55" departPosLat="0.00" departSpeed="0.00" departDelay="0.00" arrival="261.70" arrivalLane="-185930141#0_1" arrivalPos="428.88" arrivalPosLat="-0.00" arrivalSpeed="27.77" duration="221.30" routeLength="1523.59" waitingTime="88.80" waitingCount="2" stopTime="0.00" timeLoss="137.26" rerouteNo="1" devices="tripinfo_BalibagotoCalamba.0 routing_BalibagotoCalamba.0" vType="jeep" speedFactor="1.00" vaporized=""/>
    <tripinfo id="BalibagotoCalamba.1" depart="80.90" departLane="145507698_1" departPos="7.55" departPosLat="0.00" departSpeed="0.00" departDelay="0.00" arrival="262.80" arrivalLane="-185930141#0_2" arrivalPos="428.88" arrivalPosLat="0.00" arrivalSpeed="27.73" duration="181.90" routeLength="1526.74" waitingTime="49.30" waitingCount="1" stopTime="0.00" timeLoss="97.31" rerouteNo="1" devices="tripinfo_BalibagotoCalamba.1 routing_BalibagotoCalamba.1" vType="bus" speedFactor="1.00" vaporized=""/>
    <tripinfo id="NuvalitoCalamba.1" depart="121.00" departLane="-145507700#3_2" departPos="5.10" departPosLat="0.00" departSpeed="28.39" departDelay="0.00" arrival="263.00" arrivalLane="-185930141#0_1" arrivalPos="428.88" arrivalPosLat="-0.00" arrivalSpeed="28.38" duration="142.00" routeLength="2321.76" waitingTime="18.70" waitingCount="1" stopTime="0.00" timeLoss="59.02" rerouteNo="1" devices="tripinfo_NuvalitoCalamba.1 routing_NuvalitoCalamba.1" vType="car" speedFactor="1.02" vaporized=""/>
    <tripinfo id="BalibagotoCalamba.2" depart="85.90" departLane="145507698_1" departPos="7.55" departPosLat="0.00" departSpeed="0.00" departDelay="0.70" arrival="264.30" arrivalLane="-185930141#0_2" arrivalPos="428.88" arrivalPosLat="-0.85" arrivalSpeed="27.74" duration="178.40" routeLength="1523.59" waitingTime="50.00" waitingCount="2" stopTime="0.00" timeLoss="94.18" rerouteNo="1" devices="tripinfo_BalibagotoCalamba.2 routing_BalibagotoCalamba.2" vType="jeep" speedFactor="1.00" vaporized=""/>
    <tripinfo id="BinantoCalamba.1" depart="178.20" departLane="553887793#0_1" departPos="5.10" departPosLat="0.00" departSpeed="31.10" departDelay="0.00" arrival="265.70" arrivalLane="-185930141#0_2" arrivalPos="428.88" arrivalPosLat="0.00" arrivalSpeed="30.64" duration="87.50" routeLength="1507.67" waitingTime="14.00" waitingCount="1" stopTime="0.00" timeLoss="38.95" rerouteNo="1" devices="tripinfo_BinantoCalamba.1 routing_BinantoCalamba.1" vType="car" speedFactor="1.12" vaporized=""/>
    <personinfo id="PalengketoJollibee.3" depart="144.00" type="ped" speedFactor="1.04" duration="126.40" waitingTime="0.00" timeLoss="12.81" traveltime="126.40">
        <walk depart="144.00" departPos="25.00" arrival="270.40" arrivalPos="5.21" duration="126.40" routeLength="164.52" timeLoss="12.81" maxSpeed="1.45" waitingTime="0.00"/>
    </personinfo>
    <personinfo id="JollibeetoSTI.0" depart="0.00" type="ped" speedFactor="0.98" duration="272.20" waitingTime="0.80" timeLoss="27.29" traveltime="272.20">
        <walk depart="0.00" departPos="10.42" arrival="272.20" arrivalPos="19.02" duration="272.20" routeLength="335.01" timeLoss="27.29" maxSpeed="1.37" waitingTime="0.80"/>
    </personinfo>
    <tripinfo id="BinantoCalamba.0" depart="21.20" departLane="553887793#0_1" departPos="8.10" departPosLat="0.00" departSpeed="27.78" departDelay="0.00" arrival="272.20" arrivalLane="-185930141#0_1" arrivalPos="428.88" arrivalPosLat="0.00" arrivalSpeed="27.74" duration="251.00" routeLength="1504.67" waitingTime="173.20" waitingCount="1" stopTime="0.00" timeLoss="196.76" rerouteNo="1" devices="tripinfo_BinantoCalamba.0 routing_BinantoCalamba.0" vType="jeep" speedFactor="1.00" vaporized=""/>
    <tripinfo id="NuvalitoStaRosa.0" depart="56.20" departLane="-145507700#3_2" departPos="5.10" departPosLat="0.00" departSpeed="24.94" departDelay="0.00" arrival="273.60" arrivalLane="-92878383#0_1" arrivalPos="603.68" arrivalPosLat="-0.00" arrivalSpeed="7.46" duration="217.40" routeLength="2600.04" waitingTime="0.00" waitingCount="0" stopTime="0.00" timeLoss="11.72" rerouteNo="1" devices="tripinfo_NuvalitoStaRosa.0 routing_NuvalitoStaRosa.0" vType="car" speedFactor="0.90" vaporized=""/>
    <tripinfo id="BalibagotoStaRosa.0" depart="55.40" departLane="145507698_1" departPos="2.30" departPosLat="0.00" departSpeed="2.98" departDelay="0.00" arrival="275.40" arrivalLane="-92878383#0_1" arrivalPos="603.68" arrivalPosLat="0.00" arrivalSpeed="8.71" duration="220.00" routeLength="1991.73" waitingTime="0.00" waitingCount="0" stopTime="0.00" timeLoss="38.99" rerouteNo="1" devices="tripinfo_BalibagotoStaRosa.0 routing_BalibagotoStaRosa.0" vType="tricycle" speedFactor="1.05" vaporized=""/>
    <tripinfo id="NuvalitoStaRosa.1" depart="76.20" departLane="-145507700#3_2" departPos="2.30" departPosLat="0.00" departSpeed="28.75" departDelay="0.00" arrival="276.70" arrivalLane="-92878383#0_1" arrivalPos="603.68" arrivalPosLat="-0.00" arrivalSpeed="8.58" duration="200.50" routeLength="2602.84" waitingTime="0.00" waitingCount="0" stopTime="0.00" timeLoss="21.94" rerouteNo="1" devices="tripinfo_NuvalitoStaRosa.1 routing_NuvalitoStaRosa.1" vType="motorcycle" speedFactor="1.03" vaporized=""/>
    <tripinfo id="BalibagotoCalamba.3" depart="169.30" departLane="145507698_1" departPos="2.30" departPosLat="0.00" departSpeed="9.75" departDelay="0.00" arrival="286.40" arrivalLane="-185930141#0_2" arrivalPos="428.88" arrivalPosLat="0.00" arrivalSpeed="23.78" duration="117.10" routeLength="1531.99" waitingTime="2.40" waitingCount="1" stopTime="0.00" timeLoss="18.29" rerouteNo="1" devices="tripinfo_BalibagotoCalamba.3 routing_BalibagotoCalamba.3" vType="tricycle" speedFactor="0.86" vaporized=""/>
    <tripinfo id="BalibagotoBinan.2" depart="185.50" departLane="145507698_1" departPos="2.30" departPosLat="0.00" departSpeed="9.75" departDelay="0.00" arrival="290.20" arrivalLane="-553887793#0_2" arrivalPos="201.31" arrivalPosLat="0.00" arrivalSpeed="28.69" duration="104.70" routeLength="1690.81" waitingTime="0.00" waitingCount="0" stopTime="0.00" timeLoss="17.04" rerouteNo="1" devices="tripinfo_BalibagotoBinan.2 routing_BalibagotoBinan.2" vType="tricycle" speedFactor="1.04" vaporized=""/>
    <personinfo id="STItoSakayan.0" depart="0.00" type="ped" speedFactor="1.00" duration="305.70" waitingTime="7.20" timeLoss="36.68" traveltime="305.70">
        <walk depart="0.00" departPos="25.00" arrival="305.70" arrivalPos="27.04" duration="305.70" routeLength="373.08" timeLoss="36.68" maxSpeed="1.39" waitingTime="7.20"/>
    </personinfo>
    <tripinfo id="NuvalitoStaRosa.2" depart="111.10" departLane="-145507700#3_1" departPos="8.10" departPosLat="0.00" departSpeed="27.78" departDelay="0.00" arrival="313.90" arrivalLane="-92878383#0_1" arrivalPos="603.68" arrivalPosLat="-0.00" arrivalSpeed="8.30" duration="202.80" routeLength="2597.04" waitingTime="0.00" waitingCount="0" stopTime="0.00" timeLoss="18.31" rerouteNo="1" devices="tripinfo_NuvalitoStaRosa.2 routing_NuvalitoStaRosa.2" vType="jeep" speedFactor="1.00" vaporized=""/>
    <personinfo id="JollibeetoPalengke.4" depart="192.00" type="ped" speedFactor="1.03" duration="122.60" waitingTime="0.60" timeLoss="12.69" traveltime="122.60">
        <walk depart="192.00" departPos="10.42" arrival="314.60" arrivalPos="27.04" duration="122.60" routeLength="157.27" timeLoss="12.69" maxSpeed="1.43" waitingTime="0.60"/>
    </personinfo>
    <personinfo id="JollibeetoSTI.1" depart="48.00" type="ped" speedFactor="1.03" duration="268.50" waitingTime="1.20" timeLoss="34.88" traveltime="268.50">
        <walk depart="48.00" departPos="10.42" arrival="316.50" arrivalPos="19.02" duration="268.50" routeLength="335.01" timeLoss="34.88" maxSpeed="1.43" waitingTime="1.20"/>
    </personinfo>
    <personinfo id="PalengketoSTI.1" depart="48.00" type="ped" speedFactor="1.10" duration="273.40" waitingTime="1.20" timeLoss="30.77" traveltime="273.40">
        <walk depart="48.00" departPos="25.00" arrival="321.40" arrivalPos="19.02" duration="273.40" routeLength="369.14" timeLoss="30.77" maxSpeed="1.52" waitingTime="1.20"/>
    </personinfo>
    <tripinfo id="CalambatoStaRosa.0" depart="141.30" departLane="185930141#0_1" departPos="5.10" departPosLat="0.00" departSpeed="27.98" departDelay="0.00" arrival="332.90" arrivalLane="-92878383#0_1" arrivalPos="603.68" arrivalPosLat="0.00" arrivalSpeed="8.38" duration="191.60" routeLength="1808.59" waitingTime="25.50" waitingCount="1" stopTime="0.00" timeLoss="39.71" rerouteNo="1" devices="tripinfo_CalambatoStaRosa.0 routing_CalambatoStaRosa.0" vType="car" speedFactor="1.01" vaporized=""/>
    <personinfo id="PalengketoJollibee.4" depart="192.00" type="ped" speedFactor="0.98" duration="149.00" waitingTime="14.60" timeLoss="28.30" traveltime="149.00">
        <walk depart="192.00" departPos="25.00" arrival="341.00" arrivalPos="5.21" duration="149.00" routeLength="164.52" timeLoss="28.30" maxSpeed="1.36" waitingTime="14.60"/>
    </personinfo>
    <tripinfo id="BinantoStaRosa.0" depart="24.20" departLane="553887793#0_2" departPos="5.10" departPosLat="0.00" departSpeed="31.83" departDelay="0.00" arrival="343.70" arrivalLane="-92878383#0_1" arrivalPos="603.68" arrivalPosLat="-0.00" arrivalSpeed="9.42" duration="319.50" routeLength="1785.95" waitingTime="172.90" waitingCount="1" stopTime="0.00" timeLoss="184.92" rerouteNo="1" devices="tripinfo_BinantoStaRosa.0 routing_BinantoStaRosa.0" vType="car" speedFactor="1.15" vaporized=""/>
    <tripinfo id="StaRosatoBinan.0" depart="38.20" departLane="92878383#0_1" departPos="5.10" departPosLat="0.00" departSpeed="8.17" departDelay="0.00" arrival="345.80" arrivalLane="-553887793#0_1" arrivalPos="201.31" arrivalPosLat="-0.00" arrivalSpeed="27.20" duration="307.60" routeLength="1607.72" waitingTime="156.50" waitingCount="1" stopTime="0.00" timeLoss="164.17" rerouteNo="1" devices="tripinfo_StaRosatoBinan.0 routing_StaRosatoBinan.0" vType="car" speedFactor="0.98" vaporized=""/>
    <tripinfo id="StaRosatoBinan.1" depart="116.90" departLane="92878383#0_1" departPos="8.10" departPosLat="0.00" departSpeed="5.27" departDelay="0.90" arrival="356.20" arrivalLane="-553887793#0_1" arrivalPos="201.31" arrivalPosLat="-0.00" arrivalSpeed="27.74" duration="239.30" routeLength="1604.72" waitingTime="80.10" waitingCount="1" stopTime="0.00" timeLoss="98.99" rerouteNo="1" devices="tripinfo_StaRosatoBinan.1 routing_StaRosatoBinan.1" vType="jeep" speedFactor="1.00" vaporized=""/>
    <personinfo id="STItoSakayan.1" depart="48.00" type="ped" speedFactor="0.99" duration="308.80" waitingTime="7.10" timeLoss="37.88" traveltime="308.80">
        <walk depart="48.00" departPos="25.00" arrival="356.80" arrivalPos="27.04" duration="308.80" routeLength="373.08" timeLoss="37.88" maxSpeed="1.38" waitingTime="7.10"/>
    </personinfo>
    <personinfo id="PalengketoSTI.0" depart="0.00" type="ped" speedFactor="0.81" duration="364.50" waitingTime="1.20" timeLoss="36.90" traveltime="364.50">
        <walk depart="0.00" departPos="25.00" arrival="364.50" arrivalPos="19.02" duration="364.50" routeLength="369.14" timeLoss="36.90" maxSpeed="1.13" waitingTime="1.20"/>
    </personinfo>
    <tripinfo id="BalibagotoNuvali.2" depart="289.70" departLane="777619905_1" departPos="5.10" departPosLat="0.00" departSpeed="0.00" departDelay="0.00" arrival="369.90" arrivalLane="145507700#3_1" arrivalPos="783.31" arrivalPosLat="-0.00" arrivalSpeed="27.77" duration="80.20" routeLength="1312.87" waitingTime="0.00" waitingCount="0" stopTime="0.00" timeLoss="27.11" rerouteNo="1" devices="tripinfo_BalibagotoNuvali.2 routing_BalibagotoNuvali.2" vType="jeep" speedFactor="1.00" vaporized=""/>
    <personinfo id="PalengketoSTI.2" depart="96.00" type="ped" speedFactor="1.08" duration="276.40" waitingTime="1.20" timeLoss="30.22" traveltime="276.40">
        <walk depart="96.00" departPos="25.00" arrival="372.40" arrivalPos="19.02" duration="276.40" routeLength="369.14" timeLoss="30.22" maxSpeed="1.50" waitingTime="1.20"/>
    </personinfo>
    <tripinfo id="StaRosatoBalibago.0" depart="5.30" departLane="92878383#0_1" departPos="2.30" departPosLat="0.00" departSpeed="8.33" departDelay="0.00" arrival="377.80" arrivalLane="-32083237#0_1" arrivalPos="36.46" arrivalPosLat="0.00" arrivalSpeed="15.03" duration="372.50" routeLength="1364.26" waitingTime="218.10" waitingCount="3" stopTime="0.00" timeLoss="238.50" rerouteNo="1" devices="tripinfo_StaRosatoBalibago.0 routing_StaRosatoBalibago.0" vType="tricycle" speedFactor="1.00" vaporized=""/>
    <personinfo id="JollibeetoSTI.2" depart="96.00" type="ped" speedFactor="0.98" duration="282.00" waitingTime="1.70" timeLoss="36.34" traveltime="282.00">
        <walk depart="96.00" departPos="10.42" arrival="378.00" arrivalPos="19.02" duration="282.00" routeLength="335.01" timeLoss="36.34" maxSpeed="1.36" waitingTime="1.70"/>
    </personinfo>
    <personinfo id="PalengketoJollibee.5" depart="240.00" type="ped" speedFactor="0.96" duration="139.10" waitingTime="1.70" timeLoss="15.24" traveltime="139.10">
        <walk depart="240.00" departPos="25.00" arrival="379.10" arrivalPos="5.21" duration="139.10" routeLength="164.52" timeLoss="15.24" maxSpeed="1.33" waitingTime="1.70"/>
    </personinfo>
    <personinfo id="STItoSakayan.2" depart="96.00" type="ped" speedFactor="1.05" duration="285.20" waitingTime="0.40" timeLoss="28.86" traveltime="285.20">
        <walk depart="96.00" departPos="25.00" arrival="381.20" arrivalPos="27.04" duration="285.20" routeLength="373.08" timeLoss="28.86" maxSpeed="1.46" waitingTime="0.40"/>
    </personinfo>
    <personinfo id="JollibeetoPalengke.5" depart="240.00" type="ped" speedFactor="0.83" duration="151.70" waitingTime="0.90" timeLoss="15.43" traveltime="151.70">
        <walk depart="240.00" departPos="10.42" arrival="391.70" arrivalPos="27.04" duration="151.70" routeLength="157.27" timeLoss="15.43" maxSpeed="1.15" waitingTime="0.90"/>
    </personinfo>
    <tripinfo id="StaRosatoNuvali.0" depart="193.30" departLane="92878383#0_1" departPos="2.30" departPosLat="0.00" departSpeed="8.81" departDelay="0.00" arrival="396.60" arrivalLane="145507700#3_1" arrivalPos="783.31" arrivalPosLat="0.00" arrivalSpeed="29.28" duration="203.30" routeLength="2448.66" waitingTime="12.70" waitingCount="2" stopTime="0.00" timeLoss="42.12" rerouteNo="1" devices="tripinfo_StaRosatoNuvali.0 routing_StaRosatoNuvali.0" vType="tricycle" speedFactor="1.06" vaporized=""/>
    <tripinfo id="CalambatoBalibago.2" depart="238.20" departLane="185930141#0_2" departPos="8.10" departPosLat="0.00" departSpeed="27.78" departDelay="0.00" arrival="397.30" arrivalLane="89908334_1" arrivalPos="36.84" arrivalPosLat="0.00" arrivalSpeed="8.89" duration="159.10" routeLength="908.17" waitingTime="88.70" waitingCount="1" stopTime="0.00" timeLoss="117.84" rerouteNo="1" devices="tripinfo_CalambatoBalibago.2 routing_CalambatoBalibago.2" vType="jeep" speedFactor="1.00" vaporized=""/>
    <tripinfo id="StaRosatoBalibago.1" depart="9.80" departLane="92878383#0_1" departPos="2.30" departPosLat="0.00" departSpeed="9.12" departDelay="0.00" arrival="399.00" arrivalLane="-32083237#0_1" arrivalPos="36.46" arrivalPosLat="0.00" arrivalSpeed="15.19" duration="389.20" routeLength="1364.26" waitingTime="227.50" waitingCount="3" stopTime="0.00" timeLoss="266.73" rerouteNo="1" devices="tripinfo_StaRosatoBalibago.1 routing_StaRosatoBalibago.1" vType="tricycle" speedFactor="1.09" vaporized=""/>
    <tripinfo id="CalambatoBalibago.3" depart="267.10" departLane="185930141#0_2" departPos="12.10" departPosLat="0.00" departSpeed="27.78" departDelay="0.00" arrival="401.30" arrivalLane="89908334_1" arrivalPos="36.84" arrivalPosLat="0.00" arrivalSpeed="8.93" duration="134.20" routeLength="904.17" waitingTime="56.40" waitingCount="1" stopTime="0.00" timeLoss="93.11" rerouteNo="1" devices="tripinfo_CalambatoBalibago.3 routing_CalambatoBalibago.3" vType="bus" speedFactor="1.00" vaporized=""/>
    <tripinfo id="NuvalitoBinan.3" depart="309.60" departLane="-145507700#3_1" departPos="2.30" departPosLat="0.00" departSpeed="30.29" departDelay="0.00" arrival="403.90" arrivalLane="-553887793#0_1" arrivalPos="201.31" arrivalPosLat="-0.00" arrivalSpeed="30.12" duration="94.30" routeLength="2096.19" waitingTime="2.60" waitingCount="1" stopTime="0.00" timeLoss="23.92" rerouteNo="1" devices="tripinfo_NuvalitoBinan.3 routing_NuvalitoBinan.3" vType="motorcycle" speedFactor="1.09" vaporized=""/>
    <tripinfo id="NuvalitoBinan.1" depart="189.10" departLane="-145507700#3_2" departPos="8.10" departPosLat="0.00" departSpeed="27.78" departDelay="0.00" arrival="404.00" arrivalLane="-553887793#0_2" arrivalPos="201.31" arrivalPosLat="0.00" arrivalSpeed="27.78" duration="214.90" routeLength="2090.39" waitingTime="101.40" waitingCount="2" stopTime="0.00" timeLoss="138.38" rerouteNo="1" devices="tripinfo_NuvalitoBinan.1 routing_NuvalitoBinan.1" vType="jeep" speedFactor="1.00" vaporized=""/>
    <tripinfo id="NuvalitoBinan.2" depart="271.60" departLane="-145507700#3_1" departPos="2.30" departPosLat="0.00" departSpeed="29.25" departDelay="0.00" arrival="405.40" arrivalLane="-553887793#0_2" arrivalPos="201.31" arrivalPosLat="0.00" arrivalSpeed="29.16" duration="133.80" routeLength="2096.19" waitingTime="34.50" waitingCount="1" stopTime="0.00" timeLoss="60.81" rerouteNo="1" devices="tripinfo_NuvalitoBinan.2 routing_NuvalitoBinan.2" vType="tricycle" speedFactor="1.05" vaporized=""/>
    <personinfo id="TargettoSakayan.0" depart="0.00" type="ped" speedFactor="1.18" duration="407.60" waitingTime="2.00" timeLoss="43.33" traveltime="407.60">
        <walk depart="0.00" departPos="25.00" arrival="407.60" arrivalPos="27.04" duration="407.60" routeLength="596.09" timeLoss="43.33" maxSpeed="1.64" waitingTime="2.00"/>
    </personinfo>
    <personinfo id="JollibeetoPalengke.6" depart="288.00" type="ped" speedFactor="1.05" duration="120.00" waitingTime="0.10" timeLoss="11.72" traveltime="120.00">
        <walk depart="288.00" departPos="10.42" arrival="408.00" arrivalPos="27.04" duration="120.00" routeLength="157.27" timeLoss="11.72" maxSpeed="1.45" waitingTime="0.10"/>
    </personinfo>
    <tripinfo id="BinantoStaRosa.1" depart="250.00" departLane="553887793#0_1" departPos="7.20" departPosLat="0.00" departSpeed="27.50" departDelay="0.00" arrival="408.80" arrivalLane="-92878383#0_1" arrivalPos="603.68" arrivalPosLat="-0.00" arrivalSpeed="8.23" duration="158.80" routeLength="1783.85" waitingTime="0.00" waitingCount="0" stopTime="0.00" timeLoss="3.07" rerouteNo="1" devices="tripinfo_BinantoStaRosa.1 routing_BinantoStaRosa.1" vType="truck" speedFactor="0.99" vaporized=""/>
    <tripinfo id="BalibagotoNuvali.3" depart="337.00" departLane="777619905_1" departPos="2.30" departPosLat="0.00" departSpeed="5.50" departDelay="0.00" arrival="410.20" arrivalLane="145507700#3_1" arrivalPos="783.31" arrivalPosLat="-0.00" arrivalSpeed="25.28" duration="73.20" routeLength="1315.67" waitingTime="0.20" waitingCount="1" stopTime="0.00" timeLoss="14.68" rerouteNo="1" devices="tripinfo_BalibagotoNuvali.3 routing_BalibagotoNuvali.3" vType="tricycle" speedFactor="0.91" vaporized=""/>
    <personinfo id="JollibeetoSTI.3" depart="144.00" type="ped" speedFactor="1.01" duration="267.00" waitingTime="0.80" timeLoss="27.54" traveltime="267.00">
        <walk depart="144.00" departPos="10.42" arrival="411.00" arrivalPos="19.02" duration="267.00" routeLength="335.01" timeLoss="27.54" maxSpeed="1.40" waitingTime="0.80"/>
    </personinfo>
    <tripinfo id="StaRosatoCalamba.1" depart="93.90" departLane="92878383#0_1" departPos="5.10" departPosLat="0.00" departSpeed="9.78" departDelay="0.00" arrival="411.90" arrivalLane="-185930141#0_1" arrivalPos="428.88" arrivalPosLat="-0.00" arrivalSpeed="32.48" duration="318.00" routeLength="1855.46" waitingTime="143.90" waitingCount="2" stopTime="0.00" timeLoss="190.48" rerouteNo="1" devices="tripinfo_StaRosatoCalamba.1 routing_StaRosatoCalamba.1" vType="car" speedFactor="1.17" vaporized=""/>