<?xml version="1.0" encoding="UTF-8"?>

<!-- generated on 2026-02-21 10:40:51 by Eclipse SUMO sumo Version 1.24.0
<sumoConfiguration xmlns:xsi="http://www.w3.org/2001/XMLSchema-instance" xsi:noNamespaceSchemaLocation="http://sumo.dlr.de/xsd/sumoConfiguration.xsd">

    <input>
        <net-file value="Balibago_traci/network/balibago_signalized.net.xml"/>
        <route-files value="Balibago_traci/demand/flows_slow_traffic.rou.xml"/>
        <additional-files value="Balibago_traci/additionals/balibago.poly.xml,Balibago_traci/ additionals/balibago.add.xml"/>
    </input>

    <output>
        <tripinfo-output value="Balibago_traci/output_NoDRL/SD_NoDRL_slow_trips.xml"/>
        <statistic-output value="Balibago_traci/output_NoDRL/SD_NoDRL_slow_stats.xml"/>
    </output>

    <time>
        <begin value="0"/>
        <end value="10800"/>
        <step-length value="0.1"/>
    </time>

    <processing>
        <lateral-resolution value="0.1"/>
        <collision.action value="none"/>
        <collision.check-junctions value="false"/>
        <collision.mingap-factor value="0"/>
    </processing>

    <report>
        <no-warnings value="true"/>
    </report>

    <traci_server>
        <remote-port value="55560"/>
    </traci_server>

    <gui_only>
        <delay value="0"/>
    </gui_only>

</sumoConfiguration>
-->

<tripinfos xmlns:xsi="http://www.w3.org/2001/XMLSchema-instance" xsi:noNamespaceSchemaLocation="http://sumo.dlr.de/xsd/tripinfo_file.xsd">
    <tripinfo id="BalibagotoNuvali.0" depart="9.20" departLane="777619905_1" departPos="2.30" departPosLat="0.00" departSpeed="5.50" departDelay="0.00" arrival="75.80" arrivalLane="145507700#3_1" arrivalPos="783.31" arrivalPosLat="-0.00" arrivalSpeed="26.09" duration="66.60" routeLength="1315.67" waitingTime="0.00" waitingCount="0" stopTime="0.00" timeLoss="9.97" rerouteNo="1" devices="tripinfo_BalibagotoNuvali.0 routing_BalibagotoNuvali.0" vType="tricycle" speedFactor="0.94" vaporized=""/>
    <personinfo id="JollibeetoPalengke.0" depart="0.00" type="ped" speedFactor="1.06" duration="125.10" waitingTime="6.30" timeLoss="18.27" traveltime="125.10">
        <walk depart="0.00" departPos="10.42" arrival="125.10" arrivalPos="27.04" duration="125.10" routeLength="157.27" timeLoss="18.27" maxSpeed="1.47" waitingTime="6.30"/>
    </personinfo>
    <personinfo id="PalengketoJollibee.0" depart="0.00" type="ped" speedFactor="0.95" duration="138.10" waitingTime="0.00" timeLoss="13.55" traveltime="138.10">
        <walk depart="0.00" departPos="25.00" arrival="138.10" arrivalPos="5.21" duration="138.10" routeLength="164.52" timeLoss="13.55" maxSpeed="1.32" waitingTime="0.00"/>
    </personinfo>
    <tripinfo id="BiñantoBalibago.0" depart="90.20" departLane="553887793#0_1" departPos="12.10" departPosLat="0.00" departSpeed="27.78" departDelay="0.00" arrival="152.70" arrivalLane="-32083237#0_1" arrivalPos="36.46" arrivalPosLat="0.00" arrivalSpeed="11.32" duration="62.50" routeLength="992.33" waitingTime="0.00" waitingCount="0" stopTime="0.00" timeLoss="23.09" rerouteNo="1" devices="tripinfo_BiñantoBalibago.0 routing_BiñantoBalibago.0" vType="bus" speedFactor="1.00" vaporized=""/>
    <personinfo id="PalengketoJollibee.1" depart="60.00" type="ped" speedFactor="1.01" duration="130.00" waitingTime="0.00" timeLoss="13.05" traveltime="130.00">
        <walk depart="60.00" departPos="25.00" arrival="190.00" arrivalPos="5.21" duration="130.00" routeLength="164.52" timeLoss="13.05" maxSpeed="1.41" waitingTime="0.00"/>
    </personinfo>
    <personinfo id="JollibeetoPalengke.1" depart="60.00" type="ped" speedFactor="0.94" duration="133.90" waitingTime="0.00" timeLoss="13.22" traveltime="133.90">
        <walk depart="60.00" departPos="10.42" arrival="193.90" arrivalPos="27.04" duration="133.90" routeLength="157.27" timeLoss="13.22" maxSpeed="1.30" waitingTime="0.00"/>
    </personinfo>
    <tripinfo id="BalibagotoBiñan.0" depart="37.20" departLane="145507698_1" departPos="2.30" departPosLat="0.00" departSpeed="9.75" departDelay="0.00" arrival="216.60" arrivalLane="-553887793#0_1" arrivalPos="201.31" arrivalPosLat="0.00" arrivalSpeed="29.75" duration="179.40" routeLength="1690.81" waitingTime="65.60" waitingCount="1" stopTime="0.00" timeLoss="94.90" rerouteNo="1" devices="tripinfo_BalibagotoBiñan.0 routing_BalibagotoBiñan.0" vType="tricycle" speedFactor="1.07" vaporized=""/>
    <tripinfo id="CalambatoBalibago.0" depart="150.70" departLane="185930141#0_2" departPos="8.10" departPosLat="0.00" departSpeed="27.78" departDelay="0.00" arrival="236.60" arrivalLane="89908334_1" arrivalPos="36.84" arrivalPosLat="0.00" arrivalSpeed="8.95" duration="85.90" routeLength="908.17" waitingTime="15.80" waitingCount="1" stopTime="0.00" timeLoss="44.70" rerouteNo="1" devices="tripinfo_CalambatoBalibago.0 routing_CalambatoBalibago.0" vType="jeep" speedFactor="1.00" vaporized=""/>
    <personinfo id="JollibeetoPalengke.2" depart="120.00" type="ped" speedFactor="1.01" duration="124.40" waitingTime="0.00" timeLoss="12.33" traveltime="124.40">
        <walk depart="120.00" departPos="10.42" arrival="244.40" arrivalPos="27.04" duration="124.40" routeLength="157.27" timeLoss="12.33" maxSpeed="1.40" waitingTime="0.00"/>
    </personinfo>
    <tripinfo id="CalambatoNuvali.0" depart="49.20" departLane="185930141#0_2" departPos="5.10" departPosLat="0.00" departSpeed="32.61" departDelay="0.00" arrival="246.80" arrivalLane="145507700#3_1" arrivalPos="783.31" arrivalPosLat="-0.00" arrivalSpeed="32.55" duration="197.60" routeLength="2332.87" waitingTime="100.00" waitingCount="1" stopTime="0.00" timeLoss="124.72" rerouteNo="1" devices="tripinfo_CalambatoNuvali.0 routing_CalambatoNuvali.0" vType="car" speedFactor="1.17" vaporized=""/>
    <personinfo id="JollibeetoSTI.0" depart="0.00" type="ped" speedFactor="1.08" duration="249.40" waitingTime="0.80" timeLoss="26.57" traveltime="249.40">
        <walk depart="0.00" departPos="10.42" arrival="249.40" arrivalPos="19.02" duration="249.40" routeLength="335.01" timeLoss="26.57" maxSpeed="1.50" waitingTime="0.80"/>
    </personinfo>
    <personinfo id="PalengketoJollibee.2" depart="120.00" type="ped" speedFactor="0.97" duration="135.80" waitingTime="0.00" timeLoss="13.67" traveltime="135.80">
        <walk depart="120.00" departPos="25.00" arrival="255.80" arrivalPos="5.21" duration="135.80" routeLength="164.52" timeLoss="13.67" maxSpeed="1.35" waitingTime="0.00"/>
    </personinfo>
    <tripinfo id="CalambatoBalibago.1" depart="194.30" departLane="185930141#0_2" departPos="8.10" departPosLat="0.00" departSpeed="27.78" departDelay="0.00" arrival="258.70" arrivalLane="89908334_1" arrivalPos="36.84" arrivalPosLat="0.00" arrivalSpeed="8.84" duration="64.40" routeLength="908.17" waitingTime="0.00" waitingCount="0" stopTime="0.00" timeLoss="23.09" rerouteNo="1" devices="tripinfo_CalambatoBalibago.1 routing_CalambatoBalibago.1" vType="jeep" speedFactor="1.00" vaporized=""/>
    <tripinfo id="NuvalitoCalamba.0" depart="45.30" departLane="-145507700#3_1" departPos="7.20" departPosLat="0.00" departSpeed="28.04" departDelay="0.00" arrival="260.60" arrivalLane="-185930141#0_2" arrivalPos="428.88" arrivalPosLat="0.00" arrivalSpeed="28.04" duration="215.30" routeLength="2319.66" waitingTime="90.10" waitingCount="1" stopTime="0.00" timeLoss="131.38" rerouteNo="1" devices="tripinfo_NuvalitoCalamba.0 routing_NuvalitoCalamba.0" vType="truck" speedFactor="1.01" vaporized=""/>
    <tripinfo id="BalibagotoCalamba.0" depart="80.90" departLane="145507698_1" departPos="7.55" departPosLat="0.00" departSpeed="0.00" departDelay="0.00" arrival="261.50" arrivalLane="-185930141#0_1" arrivalPos="428.88" arrivalPosLat="-0.00" arrivalSpeed="27.76" duration="180.60" routeLength="1523.59" waitingTime="46.10" waitingCount="1" stopTime="0.00" timeLoss="96.45" rerouteNo="1" devices="tripinfo_BalibagotoCalamba.0 routing_BalibagotoCalamba.0" vType="jeep" speedFactor="1.00" vaporized=""/>
    <tripinfo id="BiñantoCalamba.0" depart="178.20" departLane="553887793#0_1" departPos="2.30" departPosLat="0.00" departSpeed="28.88" departDelay="0.00" arrival="262.80" arrivalLane="-185930141#0_1" arrivalPos="428.88" arrivalPosLat="0.00" arrivalSpeed="28.64" duration="84.60" routeLength="1510.47" waitingTime="18.30" waitingCount="1" stopTime="0.00" timeLoss="32.26" rerouteNo="1" devices="tripinfo_BiñantoCalamba.0 routing_BiñantoCalamba.0" vType="motorcycle" speedFactor="1.04" vaporized=""/>
    <tripinfo id="BalibagotoStaRosa.0" depart="55.40" departLane="145507698_1" departPos="7.55" departPosLat="0.00" departSpeed="0.00" departDelay="0.00" arrival="273.60" arrivalLane="-92878383#0_1" arrivalPos="603.68" arrivalPosLat="0.00" arrivalSpeed="8.28" duration="218.20" routeLength="1986.48" waitingTime="0.00" waitingCount="0" stopTime="0.00" timeLoss="29.02" rerouteNo="1" devices="tripinfo_BalibagotoStaRosa.0 routing_BalibagotoStaRosa.0" vType="bus" speedFactor="1.00" vaporized=""/>
    <personinfo id="PalengketoSTI.0" depart="0.00" type="ped" speedFactor="1.07" duration="278.20" waitingTime="1.20" timeLoss="29.85" traveltime="278.20">
        <walk depart="0.00" departPos="25.00" arrival="278.20" arrivalPos="19.02" duration="278.20" routeLength="369.14" timeLoss="29.85" maxSpeed="1.49" waitingTime="1.20"/>
    </personinfo>
    <tripinfo id="NuvalitoStaRosa.0" depart="111.10" departLane="-145507700#3_1" departPos="2.30" departPosLat="0.00" departSpeed="31.39" departDelay="0.00" arrival="285.40" arrivalLane="-92878383#0_1" arrivalPos="603.68" arrivalPosLat="-0.00" arrivalSpeed="9.41" duration="174.30" routeLength="2602.84" waitingTime="0.00" waitingCount="0" stopTime="0.00" timeLoss="10.86" rerouteNo="1" devices="tripinfo_NuvalitoStaRosa.0 routing_NuvalitoStaRosa.0" vType="tricycle" speedFactor="1.13" vaporized=""/>
    <personinfo id="STItoSakayan.0" depart="0.00" type="ped" speedFactor="1.03" duration="290.00" waitingTime="0.00" timeLoss="28.80" traveltime="290.00">
        <walk depart="0.00" departPos="25.00" arrival="290.00" arrivalPos="27.04" duration="290.00" routeLength="373.08" timeLoss="28.80" maxSpeed="1.43" waitingTime="0.00"/>
    </personinfo>
    <personinfo id="JollibeetoPalengke.3" depart="180.00" type="ped" speedFactor="1.08" duration="116.20" waitingTime="0.00" timeLoss="11.61" traveltime="116.20">
        <walk depart="180.00" departPos="10.42" arrival="296.20" arrivalPos="27.04" duration="116.20" routeLength="157.27" timeLoss="11.61" maxSpeed="1.50" waitingTime="0.00"/>
    </personinfo>
    <personinfo id="JollibeetoSTI.1" depart="60.00" type="ped" speedFactor="1.12" duration="245.50" waitingTime="2.90" timeLoss="30.00" traveltime="245.50">
        <walk depart="60.00" departPos="10.42" arrival="305.50" arrivalPos="19.02" duration="245.50" routeLength="335.01" timeLoss="30.00" maxSpeed="1.55" waitingTime="2.90"/>
    </personinfo>
    <personinfo id="PalengketoJollibee.3" depart="180.00" type="ped" speedFactor="0.99" duration="133.80" waitingTime="0.70" timeLoss="14.11" traveltime="133.80">
        <walk depart="180.00" departPos="25.00" arrival="313.80" arrivalPos="5.21" duration="133.80" routeLength="164.52" timeLoss="14.11" maxSpeed="1.37" waitingTime="0.70"/>
    </personinfo>
    <tripinfo id="BalibagotoBiñan.1" depart="185.50" departLane="145507698_1" departPos="7.55" departPosLat="0.00" departSpeed="0.00" departDelay="0.00" arrival="320.90" arrivalLane="-553887793#0_2" arrivalPos="201.31" arrivalPosLat="0.00" arrivalSpeed="27.72" duration="135.40" routeLength="1682.41" waitingTime="2.60" waitingCount="1" stopTime="0.00" timeLoss="45.30" rerouteNo="1" devices="tripinfo_BalibagotoBiñan.1 routing_BalibagotoBiñan.1" vType="jeep" speedFactor="1.00" vaporized=""/>
    <tripinfo id="StaRosatoBiñan.0" depart="38.20" departLane="92878383#0_1" departPos="2.30" departPosLat="0.00" departSpeed="8.55" departDelay="0.00" arrival="341.50" arrivalLane="-553887793#0_1" arrivalPos="201.31" arrivalPosLat="-0.00" arrivalSpeed="28.52" duration="303.30" routeLength="1610.52" waitingTime="160.90" waitingCount="1" stopTime="0.00" timeLoss="166.04" rerouteNo="1" devices="tripinfo_StaRosatoBiñan.0 routing_StaRosatoBiñan.0" vType="motorcycle" speedFactor="1.03" vaporized=""/>
    <personinfo id="STItoSakayan.1" depart="60.00" type="ped" speedFactor="1.04" duration="286.40" waitingTime="0.10" timeLoss="29.05" traveltime="286.40">
        <walk depart="60.00" departPos="25.00" arrival="346.40" arrivalPos="27.04" duration="286.40" routeLength="373.08" timeLoss="29.05" maxSpeed="1.45" waitingTime="0.10"/>
    </personinfo>
    <tripinfo id="StaRosatoBalibago.0" depart="5.30" departLane="92878383#0_1" departPos="2.30" departPosLat="0.00" departSpeed="9.27" departDelay="0.00" arrival="350.80" arrivalLane="-32083237#0_1" arrivalPos="36.46" arrivalPosLat="0.00" arrivalSpeed="15.42" duration="345.50" routeLength="1364.26" waitingTime="204.20" waitingCount="2" stopTime="0.00" timeLoss="225.02" rerouteNo="1" devices="tripinfo_StaRosatoBalibago.0 routing_StaRosatoBalibago.0" vType="tricycle" speedFactor="1.11" vaporized=""/>
    <personinfo id="JollibeetoPalengke.4" depart="240.00" type="ped" speedFactor="1.03" duration="122.40" waitingTime="0.00" timeLoss="12.49" traveltime="122.40">
        <walk depart="240.00" departPos="10.42" arrival="362.40" arrivalPos="27.04" duration="122.40" routeLength="157.27" timeLoss="12.49" maxSpeed="1.43" waitingTime="0.00"/>
    </personinfo>
    <personinfo id="PalengketoJollibee.4" depart="240.00" type="ped" speedFactor="1.02" duration="128.40" waitingTime="0.00" timeLoss="12.72" traveltime="128.40">
        <walk depart="240.00" departPos="25.00" arrival="368.40" arrivalPos="5.21" duration="128.40" routeLength="164.52" timeLoss="12.72" maxSpeed="1.42" waitingTime="0.00"/>
    </personinfo>
    <tripinfo id="BiñantoStaRosa.0" depart="24.20" departLane="553887793#0_1" departPos="2.30" departPosLat="0.00" departSpeed="25.64" departDelay="0.00" arrival="371.20" arrivalLane="-92878383#0_1" arrivalPos="603.68" arrivalPosLat="-0.00" arrivalSpeed="7.64" duration="347.00" routeLength="1788.75" waitingTime="170.30" waitingCount="1" stopTime="0.00" timeLoss="179.79" rerouteNo="1" devices="tripinfo_BiñantoStaRosa.0 routing_BiñantoStaRosa.0" vType="tricycle" speedFactor="0.92" vaporized=""/>
    <personinfo id="PalengketoSTI.1" depart="60.00" type="ped" speedFactor="0.94" duration="315.90" waitingTime="0.60" timeLoss="32.31" traveltime="315.90">
        <walk depart="60.00" departPos="25.00" arrival="375.90" arrivalPos="19.02" duration="315.90" routeLength="369.14" timeLoss="32.31" maxSpeed="1.30" waitingTime="0.60"/>
    </personinfo>
    <tripinfo id="StaRosatoBalibago.1" depart="141.60" departLane="92878383#0_1" departPos="8.10" departPosLat="0.00" departSpeed="8.33" departDelay="0.00" arrival="380.90" arrivalLane="-32083237#0_1" arrivalPos="36.46" arrivalPosLat="0.00" arrivalSpeed="11.30" duration="239.30" routeLength="1358.46" waitingTime="58.80" waitingCount="3" stopTime="0.00" timeLoss="105.94" rerouteNo="1" devices="tripinfo_StaRosatoBalibago.1 routing_StaRosatoBalibago.1" vType="jeep" speedFactor="1.00" vaporized=""/>
    <personinfo id="JollibeetoSTI.2" depart="120.00" type="ped" speedFactor="1.02" duration="265.70" waitingTime="1.60" timeLoss="28.24" traveltime="265.70">
        <walk depart="120.00" departPos="10.42" arrival="385.70" arrivalPos="19.02" duration="265.70" routeLength="335.01" timeLoss="28.24" maxSpeed="1.41" waitingTime="1.60"/>
    </personinfo>
    <tripinfo id="NuvalitoBiñan.0" depart="271.60" departLane="-145507700#3_1" departPos="2.30" departPosLat="0.00" departSpeed="29.49" departDelay="0.00" arrival="391.20" arrivalLane="-553887793#0_2" arrivalPos="201.31" arrivalPosLat="0.00" arrivalSpeed="29.33" duration="119.60" routeLength="2096.19" waitingTime="40.90" waitingCount="1" stopTime="0.00" timeLoss="47.22" rerouteNo="1" devices="tripinfo_NuvalitoBiñan.0 routing_NuvalitoBiñan.0" vType="motorcycle" speedFactor="1.06" vaporized=""/>
    <tripinfo id="StaRosatoBalibago.2" depart="224.80" departLane="92878383#0_1" departPos="8.10" departPosLat="0.00" departSpeed="8.33" departDelay="0.00" arrival="391.70" arrivalLane="-32083237#0_1" arrivalPos="36.46" arrivalPosLat="0.00" arrivalSpeed="11.55" duration="166.90" routeLength="1358.46" waitingTime="4.80" waitingCount="1" stopTime="0.00" timeLoss="33.54" rerouteNo="1" devices="tripinfo_StaRosatoBalibago.2 routing_StaRosatoBalibago.2" vType="jeep" speedFactor="1.00" vaporized=""/>
    <tripinfo id="BiñantoStaRosa.1" depart="250.00" departLane="553887793#0_2" departPos="5.10" departPosLat="0.00" departSpeed="30.21" departDelay="0.00" arrival="394.90" arrivalLane="-92878383#0_1" arrivalPos="603.68" arrivalPosLat="-0.00" arrivalSpeed="9.03" duration="144.90" routeLength="1785.95" waitingTime="0.00" waitingCount="0" stopTime="0.00" timeLoss="3.10" rerouteNo="1" devices="tripinfo_BiñantoStaRosa.1 routing_BiñantoStaRosa.1" vType="car" speedFactor="1.09" vaporized=""/>
    <tripinfo id="CalambatoBalibago.2" depart="238.20" departLane="185930141#0_2" departPos="8.10" departPosLat="0.00" departSpeed="27.78" departDelay="0.00" arrival="397.00" arrivalLane="89908334_1" arrivalPos="36.84" arrivalPosLat="0.00" arrivalSpeed="9.17" duration="158.80" routeLength="908.17" waitingTime="88.70" waitingCount="1" stopTime="0.00" timeLoss="117.48" rerouteNo="1" devices="tripinfo_CalambatoBalibago.2 routing_CalambatoBalibago.2" vType="jeep" speedFactor="1.00" vaporized=""/>
    <tripinfo id="StaRosatoNuvali.0" depart="193.30" departLane="92878383#0_1" departPos="7.20" departPosLat="0.00" departSpeed="8.98" departDelay="0.00" arrival="397.70" arrivalLane="145507700#3_1" arrivalPos="783.31" arrivalPosLat="0.00" arrivalSpeed="29.93" duration="204.40" routeLength="2443.76" waitingTime="11.70" waitingCount="1" stopTime="0.00" timeLoss="46.80" rerouteNo="1" devices="tripinfo_StaRosatoNuvali.0 routing_StaRosatoNuvali.0" vType="truck" speedFactor="1.08" vaporized=""/>
    <personinfo id="STItoSakayan.2" depart="120.00" type="ped" speedFactor="1.08" duration="278.00" waitingTime="1.90" timeLoss="29.30" traveltime="278.00">
        <walk depart="120.00" departPos="25.00" arrival="398.00" arrivalPos="27.04" duration="278.00" routeLength="373.08" timeLoss="29.30" maxSpeed="1.50" waitingTime="1.90"/>
    </personinfo>
    <personinfo id="PalengketoTarget.0" depart="0.00" type="ped" speedFactor="1.19" duration="398.70" waitingTime="1.20" timeLoss="41.39" traveltime="398.70">
        <walk depart="0.00" departPos="25.00" arrival="398.70" arrivalPos="16.04" duration="398.70" routeLength="589.17" timeLoss="41.39" maxSpeed="1.65" waitingTime="1.20"/>
    </personinfo>
    <tripinfo id="CalambatoBalibago.3" depart="267.10" departLane="185930141#0_2" departPos="8.10" departPosLat="0.00" departSpeed="27.78" departDelay="0.00" arrival="401.20" arrivalLane="89908334_1" arrivalPos="36.84" arrivalPosLat="0.00" arrivalSpeed="8.91" duration="134.10" routeLength="908.17" waitingTime="56.30" waitingCount="1" stopTime="0.00" timeLoss="92.93" rerouteNo="1" devices="tripinfo_CalambatoBalibago.3 routing_CalambatoBalibago.3" vType="jeep" speedFactor="1.00" vaporized=""/>
    <personinfo id="TargettoSakayan.0" depart="0.00" type="ped" speedFactor="1.17" duration="408.90" waitingTime="1.20" timeLoss="42.04" traveltime="408.90">
        <walk depart="0.00" departPos="25.00" arrival="408.90" arrivalPos="27.04" duration="408.90" routeLength="596.09" timeLoss="42.04" maxSpeed="1.62" waitingTime="1.20"/>
    </personinfo>
    <tripinfo id="StaRosatoCalamba.1" depart="93.90" departLane="92878383#0_1" departPos="5.10" departPosLat="0.00" departSpeed="8.52" departDelay="0.00" arrival="413.30" arrivalLane="-185930141#0_1" arrivalPos="428.88" arrivalPosLat="-0.00" arrivalSpeed="28.34" duration="319.40" routeLength="1855.46" waitingTime="136.50" waitingCount="3" stopTime="0.00" timeLoss="173.01" rerouteNo="1" devices="tripinfo_StaRosatoCalamba.1 routing_StaRosatoCalamba.1" vType="car" speedFactor="1.02" vaporized=""/>
    <tripinfo id="BalibagotoNuvali.1" depart="337.00" departLane="777619905_1" departPos="5.10" departPosLat="0.00" departSpeed="0.00" departDelay="0.00" arrival="414.00" arrivalLane="145507700#3_1" arrivalPos="783.31" arrivalPosLat="-0.00" arrivalSpeed="27.74" duration="77.00" routeLength="1312.87" waitingTime="0.00" waitingCount="0" stopTime="0.00" timeLoss="23.88" rerouteNo="1" devices="tripinfo_BalibagotoNuvali.1 routing_BalibagotoNuvali.1" vType="jeep" speedFactor="1.00" vaporized=""/>
    <tripinfo id="StaRosatoCalamba.2" depart="94.80" departLane="92878383#0_1" departPos="5.10" departPosLat="0.00" departSpeed="4.99" departDelay="0.10" arrival="415.70" arrivalLane="-185930141#0_2" arrivalPos="428.88" arrivalPosLat="0.00" arrivalSpeed="24.70" duration="320.90" routeLength="1855.46" waitingTime="117.10" waitingCount="2" stopTime="0.00" timeLoss="153.09" rerouteNo="1" devices="tripinfo_StaRosatoCalamba.2 routing_StaRosatoCalamba.2" vType="car" speedFactor="0.89" vaporized=""/>
    <tripinfo id="BiñantoBalibago.1" depart="333.00" departLane="553887793#0_1" departPos="8.10" departPosLat="0.00" departSpeed="27.78" departDelay="0.00" arrival="417.10" arrivalLane="-32083237#0_1" arrivalPos="36.46" arrivalPosLat="0.00" arrivalSpeed="11.31" duration="84.10" routeLength="996.33" waitingTime="6.80" waitingCount="2" stopTime="0.00" timeLoss="44.51" rerouteNo="1" devices="tripinfo_BiñantoBalibago.1 routing_BiñantoBalibago.1" vType="jeep" speedFactor="1.00" vaporized=""/>
    <tripinfo id="StaRosatoCalamba.3" depart="216.90" departLane="92878383#0_1" departPos="5.10" departPosLat="0.00" departSpeed="8.19" departDelay="0.00" arrival="420.40" arrivalLane="-185930141#0_1" arrivalPos="428.88" arrivalPosLat="-0.00" arrivalSpeed="27.25" duration="203.50" routeLength="1855.46" waitingTime="19.30" waitingCount="1" stopTime="0.00" timeLoss="51.10" rerouteNo="1" devices="tripinfo_StaRosatoCalamba.3 routing_StaRosatoCalamba.3" vType="car" speedFactor="0.98" vaporized=""/>
    <tripinfo id="NuvalitoCalamba.1" depart="121.00" departLane="-145507700#3_1" departPos="8.10" departPosLat="0.00" departSpeed="27.78" departDelay="0.00" arrival="422.60" arrivalLane="-185930141#0_2" arrivalPos="428.88" arrivalPosLat="0.00" arrivalSpeed="27.75" duration="301.60" routeLength="2318.76" waitingTime="179.10" waitingCount="1" stopTime="0.00" timeLoss="216.98" rerouteNo="1" devices="tripinfo_NuvalitoCalamba.1 routing_NuvalitoCalamba.1" vType="jeep" speedFactor="1.00" vaporized=""/>
    <tripinfo id="StaRosatoCalamba.0" depart="77.50" departLane="92878383#0_1" departPos="8.10" departPosLat="0.00" departSpeed="8.33" departDelay="0.00" arrival="422.70" arrivalLane="-185930141#0_1" arrivalPos="428.88" arrivalPosLat="-0.00" arrivalSpeed="27.75" duration="345.20" routeLength="1852.46" waitingTime="145.30" waitingCount="3" stopTime="0.00" timeLoss="195.78" rerouteNo="1" devices="tripinfo_StaRosatoCalamba.0 routing_StaRosatoCalamba.0" vType="jeep" speedFactor="1.00" vaporized=""/>
    <personinfo id="PalengketoSTI.2" depart="120.00" type="ped" speedFactor="0.98" duration="303.80" waitingTime="1.80" timeLoss="32.79" traveltime="303.80">
        <walk depart="120.00" departPos="25.00" arrival="423.80" arrivalPos="19.02" duration="303.80" routeLength="369.14" timeLoss="32.79" maxSpeed="1.36" waitingTime="1.80"/>
    </personinfo>
    <tripinfo id="NuvalitoCalamba.2" depart="205.50" departLane="-145507700#3_1" departPos="12.10" departPosLat="0.00" departSpeed="27.78" departDelay="0.00" arrival="424.00" arrivalLane="-185930141#0_1" arrivalPos="428.88" arrivalPosLat="-0.00" arrivalSpeed="27.78" duration="218.50" routeLength="2314.76" waitingTime="85.70" waitingCount="2" stopTime="0.00" timeLoss="133.92" rerouteNo="1" devices="tripinfo_NuvalitoCalamba.2 routing_NuvalitoCalamba.2" vType="bus" speedFactor="1.00" vaporized=""/>
    <tripinfo id="BiñantoNuvali.0" depart="318.30" departLane="553887793#0_1" departPos="5.10" departPosLat="0.00" departSpeed="29.34" departDelay="0.00" arrival="429.20" arrivalLane="145507700#3_1" arrivalPos="783.31" arrivalPosLat="-0.00" arrivalSpeed="29.25" duration="110.90" routeLength="2083.73" waitingTime="22.70" waitingCount="1" stopTime="0.00" timeLoss="38.81" rerouteNo="1" devices="tripinfo_BiñantoNuvali.0 routing_BiñantoNuvali.0" vType="car" speedFactor="1.06" vaporized=""/>
    <personinfo id="PalengketoJollibee.5" depart="300.00" type="ped" speedFactor="1.01" duration="130.60" waitingTime="0.00" timeLoss="13.40" traveltime="130.60">
        <walk depart="300.00" departPos="25.00" arrival="430.60" arrivalPos="5.21" duration="130.60" routeLength="164.52" timeLoss="13.40" maxSpeed="1.40" waitingTime="0.00"/>
    </personinfo>
    <tripinfo id="BalibagotoStaRosa.1" depart="214.70" departLane="145507698_1" departPos="7.55" departPosLat="0.00" departSpeed="0.00" departDelay="0.00" arrival="434.60" arrivalLane="-92878383#0_1" arrivalPos="603.68" arrivalPosLat="-0.00" arrivalSpeed="8.33" duration="219.90" routeLength="1983.33" waitingTime="0.00" waitingCount="0" stopTime="0.00" timeLoss="31.07" rerouteNo="1" devices="tripinfo_BalibagotoStaRosa.1 routing_BalibagotoStaRosa.1" vType="jeep" speedFactor="1.00" vaporized=""/>
    <personinfo id="JollibeetoSTI.3" depart="180.00" type="ped" speedFactor="0.99" duration="272.00" waitingTime="0.90" timeLoss="27.61" traveltime="272.00">
        <walk depart="180.00" departPos="10.42" arrival="452.00" arrivalPos="19.02" duration="272.00" routeLength="335.01" timeLoss="27.61" maxSpeed="1.37" waitingTime="0.90"/>
    </personinfo>
    <personinfo id="JollibeetoPalengke.5" depart="300.00" type="ped" speedFactor="0.83" duration="153.50" waitingTime="2.10" timeLoss="17.23" traveltime="153.50">
        <walk depart="300.00" departPos="10.42" arrival="453.50" arrivalPos="27.04" duration="153.50" routeLength="157.27" timeLoss="17.23" maxSpeed="1.15" waitingTime="2.10"/>
    </personinfo>
    <personinfo id="JollibeetoTarget.1" depart="60.00" type="ped" speedFactor="1.10" duration="404.80" waitingTime="1.40" timeLoss="42.55" traveltime="404.80">
        <walk depart="60.00" departPos="10.42" arrival="464.80" arrivalPos="16.04" duration="404.80" routeLength="555.05" timeLoss="42.55" maxSpeed="1.53" waitingTime="1.40"/>
    </personinfo>
    <personinfo id="PalengketoSTI.3" depart="180.00" type="ped" speedFactor="1.04" duration="288.70" waitingTime="2.70" timeLoss="33.83" traveltime="288.70">
        <walk depart="180.00" departPos="25.00" arrival="468.70" arrivalPos="19.02" duration="288.70" routeLength="369.14" timeLoss="33.83" maxSpeed="1.45" waitingTime="2.70"/>
    </personinfo>
    <personinfo id="JollibeetoTarget.0" depart="0.00" type="ped" speedFactor="0.94" duration="472.30" waitingTime="1.30" timeLoss="47.84" traveltime="472.30">
        <walk depart="0.00" departPos="10.42" arrival="472.30" arrivalPos="16.04" duration="472.30" routeLength="555.05" timeLoss="47.84" maxSpeed="1.31" waitingTime="1.30"/>
    </personinfo>
    <personinfo id="JollibeetoPalengke.6" depart="360.00" type="ped" speedFactor="1.05" duration="120.20" waitingTime="0.00" timeLoss="11.92" traveltime="120.20">
        <walk depart="360.00" departPos="10.42" arrival="480.20" arrivalPos="27.04" duration="120.20" routeLength="157.27" timeLoss="11.92" maxSpeed="1.45" waitingTime="0.00"/>
    </personinfo>
    <personinfo id="STItoSakayan.3" depart="180.00" type="ped" speedFactor="0.99" duration="300.40" waitingTime="0.00" timeLoss="29.86" traveltime="300.40">
        <walk depart="180.00" departPos="25.00" arrival="480.40" arrivalPos="27.04" duration="300.40" routeLength="373.08" timeLoss="29.86" maxSpeed="1.38" waitingTime="0.00"/>
    </personinfo>
    <personinfo id="TargettoSakayan.1" depart="60.00" type="ped" speedFactor="1.12" duration="427.00" waitingTime="1.70" timeLoss="44.00" traveltime="427.00">
        <walk depart="60.00" departPos="25.00" arrival="487.00" arrivalPos="27.04" duration="427.00" routeLength="596.09" timeLoss="44.00" maxSpeed="1.56" waitingTime="1.70"/>
    </personinfo>
    <tripinfo id="NuvalitoBiñan.1" depart="405.00" departLane="-145507700#3_1" departPos="2.30" departPosLat="0.00" departSpeed="30.04" departDelay="0.00" arrival="496.90" arrivalLane="-553887793#0_2" arrivalPos="201.31" arrivalPosLat="0.00" arrivalSpeed="29.98" duration="91.90" routeLength="2096.19" waitingTime="1.80" waitingCount="2" stopTime="0.00" timeLoss="20.96" rerouteNo="1" devices="tripinfo_NuvalitoBiñan.1 routing_NuvalitoBiñan.1" vType="tricycle" speedFactor="1.08" vaporized=""/>
    <personinfo id="PalengketoJollibee.6" depart="360.00" type="ped" speedFactor="0.97" duration="137.00" waitingTime="1.40" timeLoss="15.21" traveltime="137.00">
        <walk depart="360.00" departPos="25.00" arrival="497.00" arrivalPos="5.21" duration="137.00" routeLength="164.52" timeLoss="15.21" maxSpeed="1.35" waitingTime="1.40"/>
    </personinfo>
    <tripinfo id="CalambatoStaRosa.0" depart="289.50" departLane="185930141#0_1" departPos="7.20" departPosLat="0.00" departSpeed="28.24" departDelay="0.00" arrival="498.40" arrivalLane="-92878383#0_1" arrivalPos="603.68" arrivalPosLat="0.00" arrivalSpeed="8.45" duration="208.90" routeLength="1806.49" waitingTime="33.40" waitingCount="1" stopTime="0.00" timeLoss="58.61" rerouteNo="1" devices="tripinfo_CalambatoStaRosa.0 routing_CalambatoStaRosa.0" vType="truck" speedFactor="1.02" vaporized=""/>
    <personinfo id="PalengketoTarget.2" depart="120.00" type="ped" speedFactor="1.20" duration="394.80" waitingTime="2.10" timeLoss="41.86" traveltime="394.80">
        <walk depart="120.00" departPos="25.00" arrival="514.80" arrivalPos="16.04" duration="394.80" routeLength="589.17" timeLoss="41.86" maxSpeed="1.67" waitingTime="2.10"/>
    </personinfo>