<?xml version="1.0" encoding="UTF-8"?>

<!-- generated on 2026-02-20 09:30:26 by Eclipse SUMO sumo Version 1.24.0
<sumoConfiguration xmlns:xsi="http://www.w3.org/2001/XMLSchema-instance" xsi:noNamespaceSchemaLocation="http://sumo.dlr.de/xsd/sumoConfiguration.xsd">

    <input>
        <net-file value="Balibago_traci/network/balibago_signalized.net.xml"/>
        <route-files value="Balibago_traci/demand/flows_slow_traffic.rou.xml"/>
        <additional-files value="Balibago_traci/additionals/balibago.poly.xml,Balibago_traci/ additionals/balibago.add.xml"/>
    </input>

    <output>
        <tripinfo-output value="Balibago_traci/output_NoDRL/SD_NoDRL_slow_trips.xml"/>
        <statistic-output value="Balibago_traci/output_NoDRL/SD_NoDRL_slow_stats.xml"/>
    </output>

    <time>
        <begin value="0"/>
        <end value="10800"/>
        <step-length value="0.1"/>
    </time>

    <processing>
        <lateral-resolution value="0.1"/>
        <collision.action value="none"/>
        <collision.check-junctions value="false"/>
        <collision.mingap-factor value="0"/>
    </processing>

    <report>
        <no-warnings value="true"/>
    </report>

    <traci_server>
        <remote-port value="58383"/>
    </traci_server>

    <gui_only>
        <delay value="0"/>
    </gui_only>

</sumoConfiguration>
-->

<tripinfos xmlns:xsi="http://www.w3.org/2001/XMLSchema-instance" xsi:noNamespaceSchemaLocation="http://sumo.dlr.de/xsd/tripinfo_file.xsd">
    <tripinfo id="BalibagotoNuvali.0" depart="9.20" departLane="777619905_1" departPos="2.30" departPosLat="0.00" departSpeed="5.50" departDelay="0.00" arrival="70.40" arrivalLane="145507700#3_2" arrivalPos="783.31" arrivalPosLat="0.00" arrivalSpeed="29.84" duration="61.20" routeLength="1315.67" waitingTime="0.00" waitingCount="0" stopTime="0.00" timeLoss="11.74" rerouteNo="1" devices="tripinfo_BalibagotoNuvali.0 routing_BalibagotoNuvali.0" vType="tricycle" speedFactor="1.08" vaporized=""/>
    <tripinfo id="NuvalitoBiñan.0" depart="0.70" departLane="-145507700#3_1" departPos="5.10" departPosLat="0.00" departSpeed="25.17" departDelay="0.00" arrival="94.40" arrivalLane="-553887793#0_2" arrivalPos="201.31" arrivalPosLat="0.00" arrivalSpeed="25.09" duration="93.70" routeLength="2093.39" waitingTime="0.00" waitingCount="0" stopTime="0.00" timeLoss="9.11" rerouteNo="1" devices="tripinfo_NuvalitoBiñan.0 routing_NuvalitoBiñan.0" vType="car" speedFactor="0.91" vaporized=""/>
    <tripinfo id="BiñantoBalibago.0" depart="5.20" departLane="553887793#0_1" departPos="12.10" departPosLat="0.00" departSpeed="27.78" departDelay="0.00" arrival="105.80" arrivalLane="-32083237#0_1" arrivalPos="36.46" arrivalPosLat="0.00" arrivalSpeed="11.32" duration="100.60" routeLength="992.33" waitingTime="27.40" waitingCount="2" stopTime="0.00" timeLoss="61.15" rerouteNo="1" devices="tripinfo_BiñantoBalibago.0 routing_BiñantoBalibago.0" vType="bus" speedFactor="1.00" vaporized=""/>
    <personinfo id="JollibeetoPalengke.0" depart="0.00" type="ped" speedFactor="1.06" duration="118.30" waitingTime="0.00" timeLoss="11.47" traveltime="118.30">
        <walk depart="0.00" departPos="10.42" arrival="118.30" arrivalPos="27.04" duration="118.30" routeLength="157.27" timeLoss="11.47" maxSpeed="1.47" waitingTime="0.00"/>
    </personinfo>
    <tripinfo id="NuvalitoBiñan.1" depart="32.40" departLane="-145507700#3_2" departPos="8.10" departPosLat="0.00" departSpeed="27.78" departDelay="0.00" arrival="126.80" arrivalLane="-553887793#0_2" arrivalPos="201.31" arrivalPosLat="0.00" arrivalSpeed="27.75" duration="94.40" routeLength="2090.39" waitingTime="0.00" waitingCount="0" stopTime="0.00" timeLoss="17.86" rerouteNo="1" devices="tripinfo_NuvalitoBiñan.1 routing_NuvalitoBiñan.1" vType="jeep" speedFactor="1.00" vaporized=""/>
    <personinfo id="PalengketoJollibee.1" depart="22.50" type="ped" speedFactor="1.06" duration="125.70" waitingTime="0.10" timeLoss="13.59" traveltime="125.70">
        <walk depart="22.50" departPos="25.00" arrival="148.20" arrivalPos="5.21" duration="125.70" routeLength="164.52" timeLoss="13.59" maxSpeed="1.47" waitingTime="0.10"/>
    </personinfo>
    <tripinfo id="NuvalitoBalibago.0" depart="8.30" departLane="-145507700#3_1" departPos="8.10" departPosLat="0.00" departSpeed="27.78" departDelay="0.00" arrival="148.60" arrivalLane="32083201#1_1" arrivalPos="58.53" arrivalPosLat="0.00" arrivalSpeed="13.84" duration="140.30" routeLength="2055.09" waitingTime="0.00" waitingCount="0" stopTime="0.00" timeLoss="34.55" rerouteNo="1" devices="tripinfo_NuvalitoBalibago.0 routing_NuvalitoBalibago.0" vType="jeep" speedFactor="1.00" vaporized=""/>
    <personinfo id="PalengketoJollibee.0" depart="0.00" type="ped" speedFactor="0.93" duration="149.50" waitingTime="7.60" timeLoss="22.03" traveltime="149.50">
        <walk depart="0.00" departPos="25.00" arrival="149.50" arrivalPos="5.21" duration="149.50" routeLength="164.52" timeLoss="22.03" maxSpeed="1.29" waitingTime="7.60"/>
    </personinfo>
    <tripinfo id="BalibagotoNuvali.1" depart="30.10" departLane="777619905_1" departPos="5.10" departPosLat="0.00" departSpeed="0.00" departDelay="0.00" arrival="155.90" arrivalLane="145507700#3_1" arrivalPos="783.31" arrivalPosLat="-0.00" arrivalSpeed="27.73" duration="125.80" routeLength="1312.87" waitingTime="25.20" waitingCount="3" stopTime="0.00" timeLoss="72.71" rerouteNo="1" devices="tripinfo_BalibagotoNuvali.1 routing_BalibagotoNuvali.1" vType="jeep" speedFactor="1.00" vaporized=""/>
    <personinfo id="JollibeetoPalengke.1" depart="22.50" type="ped" speedFactor="0.94" duration="133.60" waitingTime="0.00" timeLoss="12.92" traveltime="133.60">
        <walk depart="22.50" departPos="10.42" arrival="156.10" arrivalPos="27.04" duration="133.60" routeLength="157.27" timeLoss="12.92" maxSpeed="1.30" waitingTime="0.00"/>
    </personinfo>
    <tripinfo id="NuvalitoBiñan.2" depart="67.30" departLane="-145507700#3_1" departPos="12.10" departPosLat="0.00" departSpeed="27.78" departDelay="0.00" arrival="161.10" arrivalLane="-553887793#0_2" arrivalPos="201.31" arrivalPosLat="0.00" arrivalSpeed="27.76" duration="93.80" routeLength="2086.39" waitingTime="0.00" waitingCount="0" stopTime="0.00" timeLoss="17.27" rerouteNo="1" devices="tripinfo_NuvalitoBiñan.2 routing_NuvalitoBiñan.2" vType="bus" speedFactor="1.00" vaporized=""/>
    <personinfo id="PalengketoJollibee.2" depart="45.00" type="ped" speedFactor="1.10" duration="120.80" waitingTime="0.70" timeLoss="12.78" traveltime="120.80">
        <walk depart="45.00" departPos="25.00" arrival="165.80" arrivalPos="5.21" duration="120.80" routeLength="164.52" timeLoss="12.78" maxSpeed="1.52" waitingTime="0.70"/>
    </personinfo>
    <tripinfo id="BalibagotoNuvali.2" depart="81.90" departLane="777619905_1" departPos="5.10" departPosLat="0.00" departSpeed="0.00" departDelay="0.00" arrival="167.90" arrivalLane="145507700#3_1" arrivalPos="783.31" arrivalPosLat="-0.00" arrivalSpeed="27.76" duration="86.00" routeLength="1312.87" waitingTime="1.40" waitingCount="1" stopTime="0.00" timeLoss="32.90" rerouteNo="1" devices="tripinfo_BalibagotoNuvali.2 routing_BalibagotoNuvali.2" vType="jeep" speedFactor="1.00" vaporized=""/>
    <tripinfo id="NuvalitoBalibago.1" depart="28.30" departLane="-145507700#3_1" departPos="8.10" departPosLat="0.00" departSpeed="27.78" departDelay="0.00" arrival="169.10" arrivalLane="32083201#1_1" arrivalPos="58.53" arrivalPosLat="0.00" arrivalSpeed="13.85" duration="140.80" routeLength="2055.09" waitingTime="0.00" waitingCount="0" stopTime="0.00" timeLoss="34.95" rerouteNo="1" devices="tripinfo_NuvalitoBalibago.1 routing_NuvalitoBalibago.1" vType="jeep" speedFactor="1.00" vaporized=""/>
    <personinfo id="JollibeetoPalengke.2" depart="45.00" type="ped" speedFactor="1.01" duration="125.10" waitingTime="0.60" timeLoss="13.03" traveltime="125.10">
        <walk depart="45.00" departPos="10.42" arrival="170.10" arrivalPos="27.04" duration="125.10" routeLength="157.27" timeLoss="13.03" maxSpeed="1.40" waitingTime="0.60"/>
    </personinfo>
    <personinfo id="JollibeetoPalengke.3" depart="67.50" type="ped" speedFactor="1.08" duration="115.90" waitingTime="0.00" timeLoss="11.31" traveltime="115.90">
        <walk depart="67.50" departPos="10.42" arrival="183.40" arrivalPos="27.04" duration="115.90" routeLength="157.27" timeLoss="11.31" maxSpeed="1.50" waitingTime="0.00"/>
    </personinfo>
    <tripinfo id="CalambatoStaRosa.0" depart="28.70" departLane="185930141#0_1" departPos="5.10" departPosLat="0.00" departSpeed="26.85" departDelay="0.00" arrival="191.60" arrivalLane="-92878383#0_1" arrivalPos="603.68" arrivalPosLat="0.00" arrivalSpeed="7.95" duration="162.90" routeLength="1808.59" waitingTime="0.00" waitingCount="0" stopTime="0.00" timeLoss="4.75" rerouteNo="1" devices="tripinfo_CalambatoStaRosa.0 routing_CalambatoStaRosa.0" vType="car" speedFactor="0.97" vaporized=""/>
    <tripinfo id="NuvalitoBalibago.2" depart="68.00" departLane="-145507700#3_1" departPos="8.10" departPosLat="0.00" departSpeed="25.24" departDelay="0.00" arrival="209.50" arrivalLane="32083201#1_1" arrivalPos="58.53" arrivalPosLat="0.00" arrivalSpeed="13.85" duration="141.50" routeLength="2055.09" waitingTime="0.00" waitingCount="0" stopTime="0.00" timeLoss="35.65" rerouteNo="1" devices="tripinfo_NuvalitoBalibago.2 routing_NuvalitoBalibago.2" vType="jeep" speedFactor="1.00" vaporized=""/>
    <personinfo id="JollibeetoPalengke.4" depart="90.00" type="ped" speedFactor="1.03" duration="122.20" waitingTime="0.00" timeLoss="12.29" traveltime="122.20">
        <walk depart="90.00" departPos="10.42" arrival="212.20" arrivalPos="27.04" duration="122.20" routeLength="157.27" timeLoss="12.29" maxSpeed="1.43" waitingTime="0.00"/>
    </personinfo>
    <tripinfo id="NuvalitoBalibago.3" depart="71.30" departLane="-145507700#3_1" departPos="8.10" departPosLat="0.00" departSpeed="27.78" departDelay="0.00" arrival="214.00" arrivalLane="32083201#1_1" arrivalPos="58.53" arrivalPosLat="0.00" arrivalSpeed="13.86" duration="142.70" routeLength="2055.09" waitingTime="0.00" waitingCount="0" stopTime="0.00" timeLoss="36.78" rerouteNo="1" devices="tripinfo_NuvalitoBalibago.3 routing_NuvalitoBalibago.3" vType="jeep" speedFactor="1.00" vaporized=""/>
    <tripinfo id="CalambatoBiñan.0" depart="32.70" departLane="185930141#0_2" departPos="5.10" departPosLat="0.00" departSpeed="26.71" departDelay="0.00" arrival="216.10" arrivalLane="-553887793#0_1" arrivalPos="201.31" arrivalPosLat="-0.00" arrivalSpeed="26.59" duration="183.40" routeLength="1507.67" waitingTime="112.10" waitingCount="1" stopTime="0.00" timeLoss="126.93" rerouteNo="1" devices="tripinfo_CalambatoBiñan.0 routing_CalambatoBiñan.0" vType="car" speedFactor="0.96" vaporized=""/>
    <personinfo id="PalengketoJollibee.3" depart="67.50" type="ped" speedFactor="0.95" duration="151.80" waitingTime="13.60" timeLoss="27.66" traveltime="151.80">
        <walk depart="67.50" departPos="25.00" arrival="219.30" arrivalPos="5.21" duration="151.80" routeLength="164.52" timeLoss="27.66" maxSpeed="1.33" waitingTime="13.60"/>
    </personinfo>
    <tripinfo id="BalibagotoBiñan.1" depart="37.20" departLane="145507698_1" departPos="7.55" departPosLat="0.00" departSpeed="0.00" departDelay="0.00" arrival="223.90" arrivalLane="-553887793#0_1" arrivalPos="201.31" arrivalPosLat="0.00" arrivalSpeed="27.77" duration="186.70" routeLength="1685.56" waitingTime="31.80" waitingCount="2" stopTime="0.00" timeLoss="96.14" rerouteNo="1" devices="tripinfo_BalibagotoBiñan.1 routing_BalibagotoBiñan.1" vType="bus" speedFactor="1.00" vaporized=""/>
    <tripinfo id="BalibagotoBiñan.2" depart="86.30" departLane="145507698_1" departPos="7.55" departPosLat="0.00" departSpeed="0.00" departDelay="20.70" arrival="225.40" arrivalLane="-553887793#0_1" arrivalPos="201.31" arrivalPosLat="-0.00" arrivalSpeed="27.75" duration="139.10" routeLength="1682.41" waitingTime="0.40" waitingCount="1" stopTime="0.00" timeLoss="48.95" rerouteNo="1" devices="tripinfo_BalibagotoBiñan.2 routing_BalibagotoBiñan.2" vType="jeep" speedFactor="1.00" vaporized=""/>
    <tripinfo id="BalibagotoBiñan.0" depart="13.70" departLane="145507698_1" departPos="7.55" departPosLat="0.00" departSpeed="0.00" departDelay="0.00" arrival="225.70" arrivalLane="-553887793#0_2" arrivalPos="201.31" arrivalPosLat="0.00" arrivalSpeed="27.74" duration="212.00" routeLength="1682.41" waitingTime="66.00" waitingCount="1" stopTime="0.00" timeLoss="121.91" rerouteNo="1" devices="tripinfo_BalibagotoBiñan.0 routing_BalibagotoBiñan.0" vType="jeep" speedFactor="1.00" vaporized=""/>
    <tripinfo id="BalibagotoBiñan.3" depart="90.00" departLane="145507698_1" departPos="2.30" departPosLat="0.00" departSpeed="0.61" departDelay="23.30" arrival="227.10" arrivalLane="-553887793#0_2" arrivalPos="201.31" arrivalPosLat="0.00" arrivalSpeed="29.57" duration="137.10" routeLength="1690.81" waitingTime="5.60" waitingCount="1" stopTime="0.00" timeLoss="53.39" rerouteNo="1" devices="tripinfo_BalibagotoBiñan.3 routing_BalibagotoBiñan.3" vType="tricycle" speedFactor="1.08" vaporized=""/>
    <tripinfo id="BalibagotoNuvali.3" depart="124.10" departLane="777619905_1" departPos="5.10" departPosLat="0.00" departSpeed="0.00" departDelay="0.00" arrival="230.00" arrivalLane="145507700#3_1" arrivalPos="783.31" arrivalPosLat="-0.00" arrivalSpeed="27.72" duration="105.90" routeLength="1312.87" waitingTime="11.50" waitingCount="2" stopTime="0.00" timeLoss="52.78" rerouteNo="1" devices="tripinfo_BalibagotoNuvali.3 routing_BalibagotoNuvali.3" vType="jeep" speedFactor="1.00" vaporized=""/>
    <tripinfo id="BalibagotoNuvali.6" depart="157.80" departLane="777619905_1" departPos="2.30" departPosLat="0.00" departSpeed="5.50" departDelay="0.00" arrival="232.60" arrivalLane="145507700#3_2" arrivalPos="783.31" arrivalPosLat="0.00" arrivalSpeed="29.15" duration="74.80" routeLength="1315.67" waitingTime="0.00" waitingCount="0" stopTime="0.00" timeLoss="24.02" rerouteNo="1" devices="tripinfo_BalibagotoNuvali.6 routing_BalibagotoNuvali.6" vType="tricycle" speedFactor="1.05" vaporized=""/>
    <tripinfo id="NuvalitoBalibago.4" depart="85.20" departLane="-145507700#3_1" departPos="2.30" departPosLat="0.00" departSpeed="21.98" departDelay="0.00" arrival="233.60" arrivalLane="32083201#1_1" arrivalPos="58.53" arrivalPosLat="0.00" arrivalSpeed="10.97" duration="148.40" routeLength="2064.04" waitingTime="0.00" waitingCount="0" stopTime="0.00" timeLoss="14.14" rerouteNo="1" devices="tripinfo_NuvalitoBalibago.4 routing_NuvalitoBalibago.4" vType="tricycle" speedFactor="0.79" vaporized=""/>
    <tripinfo id="CalambatoBiñan.1" depart="169.10" departLane="185930141#0_1" departPos="2.30" departPosLat="0.00" departSpeed="25.52" departDelay="0.00" arrival="233.90" arrivalLane="-553887793#0_2" arrivalPos="201.31" arrivalPosLat="0.00" arrivalSpeed="25.31" duration="64.80" routeLength="1510.47" waitingTime="0.00" waitingCount="0" stopTime="0.00" timeLoss="5.60" rerouteNo="1" devices="tripinfo_CalambatoBiñan.1 routing_CalambatoBiñan.1" vType="motorcycle" speedFactor="0.92" vaporized=""/>
    <tripinfo id="BalibagotoNuvali.4" depart="138.80" departLane="777619905_1" departPos="2.30" departPosLat="0.00" departSpeed="5.50" departDelay="0.00" arrival="234.60" arrivalLane="145507700#3_1" arrivalPos="783.31" arrivalPosLat="-0.00" arrivalSpeed="24.39" duration="95.80" routeLength="1315.67" waitingTime="13.80" waitingCount="2" stopTime="0.00" timeLoss="35.33" rerouteNo="1" devices="tripinfo_BalibagotoNuvali.4 routing_BalibagotoNuvali.4" vType="tricycle" speedFactor="0.88" vaporized=""/>
    <tripinfo id="BalibagotoNuvali.5" depart="139.70" departLane="777619905_1" departPos="2.30" departPosLat="0.00" departSpeed="5.50" departDelay="0.40" arrival="236.80" arrivalLane="145507700#3_1" arrivalPos="783.31" arrivalPosLat="-0.00" arrivalSpeed="23.64" duration="97.10" routeLength="1315.67" waitingTime="10.20" waitingCount="1" stopTime="0.00" timeLoss="34.57" rerouteNo="1" devices="tripinfo_BalibagotoNuvali.5 routing_BalibagotoNuvali.5" vType="tricycle" speedFactor="0.85" vaporized=""/>
    <tripinfo id="CalambatoNuvali.0" depart="34.20" departLane="185930141#0_2" departPos="2.30" departPosLat="0.00" departSpeed="29.43" departDelay="0.00" arrival="241.60" arrivalLane="145507700#3_1" arrivalPos="783.31" arrivalPosLat="-0.00" arrivalSpeed="29.46" duration="207.40" routeLength="2335.67" waitingTime="110.30" waitingCount="1" stopTime="0.00" timeLoss="126.68" rerouteNo="1" devices="tripinfo_CalambatoNuvali.0 routing_CalambatoNuvali.0" vType="motorcycle" speedFactor="1.06" vaporized=""/>
    <personinfo id="PalengketoJollibee.4" depart="90.00" type="ped" speedFactor="0.91" duration="152.40" waitingTime="6.90" timeLoss="21.77" traveltime="152.40">
        <walk depart="90.00" departPos="25.00" arrival="242.40" arrivalPos="5.21" duration="152.40" routeLength="164.52" timeLoss="21.77" maxSpeed="1.26" waitingTime="6.90"/>
    </personinfo>
    <tripinfo id="CalambatoStaRosa.1" depart="75.40" departLane="185930141#0_1" departPos="5.10" departPosLat="0.00" departSpeed="25.49" departDelay="0.00" arrival="248.50" arrivalLane="-92878383#0_1" arrivalPos="603.68" arrivalPosLat="0.00" arrivalSpeed="7.52" duration="173.10" routeLength="1808.59" waitingTime="0.00" waitingCount="0" stopTime="0.00" timeLoss="6.40" rerouteNo="1" devices="tripinfo_CalambatoStaRosa.1 routing_CalambatoStaRosa.1" vType="car" speedFactor="0.92" vaporized=""/>
    <tripinfo id="NuvalitoCalamba.1" depart="121.00" departLane="-145507700#3_2" departPos="2.30" departPosLat="0.00" departSpeed="27.69" departDelay="0.00" arrival="249.40" arrivalLane="-185930141#0_2" arrivalPos="428.88" arrivalPosLat="0.00" arrivalSpeed="27.62" duration="128.40" routeLength="2324.56" waitingTime="31.40" waitingCount="1" stopTime="0.00" timeLoss="43.32" rerouteNo="1" devices="tripinfo_NuvalitoCalamba.1 routing_NuvalitoCalamba.1" vType="motorcycle" speedFactor="1.00" vaporized=""/>
    <tripinfo id="NuvalitoCalamba.0" depart="45.30" departLane="-145507700#3_1" departPos="2.30" departPosLat="0.00" departSpeed="25.08" departDelay="0.00" arrival="251.50" arrivalLane="-185930141#0_1" arrivalPos="428.88" arrivalPosLat="1.36" arrivalSpeed="24.81" duration="206.20" routeLength="2324.56" waitingTime="102.30" waitingCount="1" stopTime="0.00" timeLoss="112.18" rerouteNo="1" devices="tripinfo_NuvalitoCalamba.0 routing_NuvalitoCalamba.0" vType="motorcycle" speedFactor="0.90" vaporized=""/>
    <tripinfo id="NuvalitoBalibago.5" depart="111.50" departLane="-145507700#3_1" departPos="8.10" departPosLat="0.00" departSpeed="22.87" departDelay="0.00" arrival="254.20" arrivalLane="32083201#1_1" arrivalPos="58.53" arrivalPosLat="0.00" arrivalSpeed="13.85" duration="142.70" routeLength="2055.09" waitingTime="0.00" waitingCount="0" stopTime="0.00" timeLoss="36.89" rerouteNo="1" devices="tripinfo_NuvalitoBalibago.5 routing_NuvalitoBalibago.5" vType="jeep" speedFactor="1.00" vaporized=""/>
    <personinfo id="JollibeetoPalengke.6" depart="135.00" type="ped" speedFactor="1.05" duration="120.70" waitingTime="0.30" timeLoss="12.42" traveltime="120.70">
        <walk depart="135.00" departPos="10.42" arrival="255.70" arrivalPos="27.04" duration="120.70" routeLength="157.27" timeLoss="12.42" maxSpeed="1.45" waitingTime="0.30"/>
    </personinfo>
    <tripinfo id="NuvalitoStaRosa.0" depart="56.20" departLane="-145507700#3_2" departPos="5.10" departPosLat="0.00" departSpeed="30.14" departDelay="0.00" arrival="257.00" arrivalLane="-92878383#0_1" arrivalPos="603.68" arrivalPosLat="-0.00" arrivalSpeed="8.94" duration="200.80" routeLength="2600.04" waitingTime="8.30" waitingCount="2" stopTime="0.00" timeLoss="30.63" rerouteNo="1" devices="tripinfo_NuvalitoStaRosa.0 routing_NuvalitoStaRosa.0" vType="car" speedFactor="1.09" vaporized=""/>
    <tripinfo id="CalambatoBalibago.0" depart="55.00" departLane="185930141#0_2" departPos="8.10" departPosLat="0.00" departSpeed="27.78" departDelay="0.00" arrival="257.10" arrivalLane="89908334_1" arrivalPos="36.84" arrivalPosLat="0.00" arrivalSpeed="8.52" duration="202.10" routeLength="908.17" waitingTime="128.70" waitingCount="2" stopTime="0.00" timeLoss="160.72" rerouteNo="1" devices="tripinfo_CalambatoBalibago.0 routing_CalambatoBalibago.0" vType="jeep" speedFactor="1.00" vaporized=""/>
    <tripinfo id="CalambatoBalibago.1" depart="65.80" departLane="185930141#0_2" departPos="2.30" departPosLat="0.00" departSpeed="29.28" departDelay="0.00" arrival="259.10" arrivalLane="89908334_1" arrivalPos="36.84" arrivalPosLat="0.00" arrivalSpeed="11.20" duration="193.30" routeLength="913.97" waitingTime="113.80" waitingCount="2" stopTime="0.00" timeLoss="153.94" rerouteNo="1" devices="tripinfo_CalambatoBalibago.1 routing_CalambatoBalibago.1" vType="tricycle" speedFactor="1.05" vaporized=""/>
    <tripinfo id="BalibagotoCalamba.0" depart="42.20" departLane="145507698_1" departPos="7.55" departPosLat="0.00" departSpeed="0.00" departDelay="1.80" arrival="261.80" arrivalLane="-185930141#0_1" arrivalPos="428.88" arrivalPosLat="0.00" arrivalSpeed="27.73" duration="219.60" routeLength="1526.74" waitingTime="88.40" waitingCount="2" stopTime="0.00" timeLoss="135.01" rerouteNo="1" devices="tripinfo_BalibagotoCalamba.0 routing_BalibagotoCalamba.0" vType="bus" speedFactor="1.00" vaporized=""/>
    <tripinfo id="BalibagotoCalamba.1" depart="92.70" departLane="145507698_1" departPos="7.55" departPosLat="0.00" departSpeed="0.00" departDelay="11.80" arrival="262.30" arrivalLane="-185930141#0_2" arrivalPos="428.88" arrivalPosLat="0.00" arrivalSpeed="27.74" duration="169.60" routeLength="1523.59" waitingTime="35.80" waitingCount="2" stopTime="0.00" timeLoss="85.37" rerouteNo="1" devices="tripinfo_BalibagotoCalamba.1 routing_BalibagotoCalamba.1" vType="jeep" speedFactor="1.00" vaporized=""/>
    <tripinfo id="CalambatoBalibago.2" depart="79.70" departLane="185930141#0_2" departPos="8.10" departPosLat="0.00" departSpeed="27.78" departDelay="0.00" arrival="262.60" arrivalLane="89908334_1" arrivalPos="36.84" arrivalPosLat="0.00" arrivalSpeed="8.83" duration="182.90" routeLength="908.17" waitingTime="95.00" waitingCount="2" stopTime="0.00" timeLoss="141.63" rerouteNo="1" devices="tripinfo_CalambatoBalibago.2 routing_CalambatoBalibago.2" vType="jeep" speedFactor="1.00" vaporized=""/>
    <tripinfo id="BalibagotoCalamba.3" depart="126.90" departLane="145507698_1" departPos="7.55" departPosLat="0.00" departSpeed="0.00" departDelay="41.70" arrival="263.30" arrivalLane="-185930141#0_1" arrivalPos="428.88" arrivalPosLat="-0.00" arrivalSpeed="27.73" duration="136.40" routeLength="1523.59" waitingTime="2.40" waitingCount="2" stopTime="0.00" timeLoss="52.16" rerouteNo="1" devices="tripinfo_BalibagotoCalamba.3 routing_BalibagotoCalamba.3" vType="jeep" speedFactor="1.00" vaporized=""/>
    <personinfo id="JollibeetoPalengke.5" depart="112.50" type="ped" speedFactor="0.83" duration="151.20" waitingTime="0.00" timeLoss="14.93" traveltime="151.20">
        <walk depart="112.50" departPos="10.42" arrival="263.70" arrivalPos="27.04" duration="151.20" routeLength="157.27" timeLoss="14.93" maxSpeed="1.15" waitingTime="0.00"/>
    </personinfo>
    <tripinfo id="BalibagotoCalamba.2" depart="100.90" departLane="145507698_1" departPos="7.55" departPosLat="0.00" departSpeed="0.00" departDelay="18.50" arrival="263.70" arrivalLane="-185930141#0_2" arrivalPos="428.88" arrivalPosLat="0.00" arrivalSpeed="27.73" duration="162.80" routeLength="1523.59" waitingTime="28.40" waitingCount="2" stopTime="0.00" timeLoss="78.57" rerouteNo="1" devices="tripinfo_BalibagotoCalamba.2 routing_BalibagotoCalamba.2" vType="jeep" speedFactor="1.00" vaporized=""/>
    <tripinfo id="CalambatoBalibago.3" depart="150.70" departLane="185930141#0_2" departPos="2.30" departPosLat="0.00" departSpeed="29.99" departDelay="0.00" arrival="264.90" arrivalLane="89908334_1" arrivalPos="36.84" arrivalPosLat="0.00" arrivalSpeed="11.40" duration="114.20" routeLength="913.97" waitingTime="22.60" waitingCount="2" stopTime="0.00" timeLoss="75.71" rerouteNo="1" devices="tripinfo_CalambatoBalibago.3 routing_CalambatoBalibago.3" vType="tricycle" speedFactor="1.08" vaporized=""/>
    <tripinfo id="BalibagotoCalamba.4" depart="131.50" departLane="145507698_1" departPos="7.55" departPosLat="0.00" departSpeed="0.00" departDelay="35.20" arrival="265.00" arrivalLane="-185930141#0_2" arrivalPos="428.88" arrivalPosLat="0.00" arrivalSpeed="27.75" duration="133.50" routeLength="1523.59" waitingTime="12.40" waitingCount="1" stopTime="0.00" timeLoss="49.31" rerouteNo="1" devices="tripinfo_BalibagotoCalamba.4 routing_BalibagotoCalamba.4" vType="jeep" speedFactor="1.00" vaporized=""/>
    <tripinfo id="BalibagotoCalamba.5" depart="147.20" departLane="145507698_1" departPos="2.30" departPosLat="0.00" departSpeed="0.48" departDelay="43.30" arrival="265.10" arrivalLane="-185930141#0_1" arrivalPos="428.88" arrivalPosLat="0.00" arrivalSpeed="29.05" duration="117.90" routeLength="1531.99" waitingTime="13.10" waitingCount="1" stopTime="0.00" timeLoss="37.01" rerouteNo="1" devices="tripinfo_BalibagotoCalamba.5 routing_BalibagotoCalamba.5" vType="tricycle" speedFactor="1.05" vaporized=""/>
    <tripinfo id="BiñantoCalamba.1" depart="18.60" departLane="553887793#0_2" departPos="5.10" departPosLat="0.00" departSpeed="31.93" departDelay="0.00" arrival="266.30" arrivalLane="-185930141#0_2" arrivalPos="428.88" arrivalPosLat="0.00" arrivalSpeed="30.37" duration="247.70" routeLength="1507.67" waitingTime="178.50" waitingCount="1" stopTime="0.00" timeLoss="200.45" rerouteNo="1" devices="tripinfo_BiñantoCalamba.1 routing_BiñantoCalamba.1" vType="car" speedFactor="1.15" vaporized=""/>
    <tripinfo id="CalambatoBalibago.4" depart="194.30" departLane="185930141#0_2" departPos="2.30" departPosLat="0.00" departSpeed="25.00" departDelay="0.00" arrival="267.70" arrivalLane="89908334_1" arrivalPos="36.84" arrivalPosLat="0.00" arrivalSpeed="11.13" duration="73.40" routeLength="913.97" waitingTime="0.00" waitingCount="0" stopTime="0.00" timeLoss="27.23" rerouteNo="1" devices="tripinfo_CalambatoBalibago.4 routing_CalambatoBalibago.4" vType="tricycle" speedFactor="0.90" vaporized=""/>
    <tripinfo id="BiñantoCalamba.0" depart="15.10" departLane="553887793#0_1" departPos="5.10" departPosLat="0.00" departSpeed="28.61" departDelay="0.00" arrival="267.90" arrivalLane="-185930141#0_1" arrivalPos="428.88" arrivalPosLat="-0.00" arrivalSpeed="28.51" duration="252.80" routeLength="1507.67" waitingTime="170.00" waitingCount="2" stopTime="0.00" timeLoss="200.02" rerouteNo="1" devices="tripinfo_BiñantoCalamba.0 routing_BiñantoCalamba.0" vType="car" speedFactor="1.03" vaporized=""/>
    <personinfo id="PalengketoJollibee.6" depart="135.00" type="ped" speedFactor="1.04" duration="133.00" waitingTime="1.80" timeLoss="19.50" traveltime="133.00">
        <walk depart="135.00" departPos="25.00" arrival="268.00" arrivalPos="5.21" duration="133.00" routeLength="164.52" timeLoss="19.50" maxSpeed="1.45" waitingTime="1.80"/>
    </personinfo>
    <tripinfo id="BalibagotoNuvali.7" depart="193.20" departLane="777619905_1" departPos="5.10" departPosLat="0.00" departSpeed="0.00" departDelay="0.00" arrival="269.40" arrivalLane="145507700#3_1" arrivalPos="783.31" arrivalPosLat="-0.00" arrivalSpeed="27.74" duration="76.20" routeLength="1312.87" waitingTime="0.00" waitingCount="0" stopTime="0.00" timeLoss="23.08" rerouteNo="1" devices="tripinfo_BalibagotoNuvali.7 routing_BalibagotoNuvali.7" vType="jeep" speedFactor="1.00" vaporized=""/>
    <tripinfo id="BalibagotoCalamba.6" depart="167.70" departLane="145507698_1" departPos="2.30" departPosLat="0.00" departSpeed="0.94" departDelay="12.80" arrival="270.50" arrivalLane="-185930141#0_2" arrivalPos="428.88" arrivalPosLat="0.00" arrivalSpeed="28.85" duration="102.80" routeLength="1531.99" waitingTime="0.00" waitingCount="0" stopTime="0.00" timeLoss="21.08" rerouteNo="1" devices="tripinfo_BalibagotoCalamba.6 routing_BalibagotoCalamba.6" vType="tricycle" speedFactor="1.04" vaporized=""/>
    <tripinfo id="BiñantoCalamba.6" depart="189.30" departLane="553887793#0_2" departPos="2.30" departPosLat="0.00" departSpeed="29.84" departDelay="0.00" arrival="270.50" arrivalLane="-185930141#0_1" arrivalPos="428.88" arrivalPosLat="1.36" arrivalSpeed="29.67" duration="81.20" routeLength="1510.47" waitingTime="9.50" waitingCount="1" stopTime="0.00" timeLoss="30.55" rerouteNo="1" devices="tripinfo_BiñantoCalamba.6 routing_BiñantoCalamba.6" vType="motorcycle" speedFactor="1.07" vaporized=""/>
    <personinfo id="PalengketoJollibee.5" depart="112.50" type="ped" speedFactor="0.84" duration="160.00" waitingTime="3.80" timeLoss="19.40" traveltime="160.00">
        <walk depart="112.50" departPos="25.00" arrival="272.50" arrivalPos="5.21" duration="160.00" routeLength="164.52" timeLoss="19.40" maxSpeed="1.17" waitingTime="3.80"/>
    </personinfo>
    <tripinfo id="BiñantoCalamba.2" depart="21.20" departLane="553887793#0_1" departPos="8.10" departPosLat="0.00" departSpeed="27.78" departDelay="0.00" arrival="273.70" arrivalLane="-185930141#0_1" arrivalPos="428.88" arrivalPosLat="-0.00" arrivalSpeed="27.74" duration="252.50" routeLength="1504.67" waitingTime="160.40" waitingCount="1" stopTime="0.00" timeLoss="198.29" rerouteNo="1" devices="tripinfo_BiñantoCalamba.2 routing_BiñantoCalamba.2" vType="jeep" speedFactor="1.00" vaporized=""/>
    <tripinfo id="BiñantoCalamba.3" depart="23.50" departLane="553887793#0_2" departPos="8.10" departPosLat="0.00" departSpeed="27.78" departDelay="0.00" arrival="273.80" arrivalLane="-185930141#0_2" arrivalPos="428.88" arrivalPosLat="0.00" arrivalSpeed="27.77" duration="250.30" routeLength="1504.67" waitingTime="167.20" waitingCount="1" stopTime="0.00" timeLoss="196.08" rerouteNo="1" devices="tripinfo_BiñantoCalamba.3 routing_BiñantoCalamba.3" vType="jeep" speedFactor="1.00" vaporized=""/>