<?xml version="1.0" encoding="UTF-8"?>

<!-- generated on 2026-02-20 09:27:13 by Eclipse SUMO sumo Version 1.24.0
<sumoConfiguration xmlns:xsi="http://www.w3.org/2001/XMLSchema-instance" xsi:noNamespaceSchemaLocation="http://sumo.dlr.de/xsd/sumoConfiguration.xsd">

    <input>
        <net-file value="Balibago_traci/network/balibago_signalized.net.xml"/>
        <route-files value="Balibago_traci/demand/flows_normal_traffic.rou.xml"/>
        <additional-files value="Balibago_traci/additionals/balibago.poly.xml,Balibago_traci/ additionals/balibago.add.xml"/>
    </input>

    <output>
        <tripinfo-output value="Balibago_traci/output_NoDRL/SD_NoDRL_trips.xml"/>
        <statistic-output value="Balibago_traci/output_NoDRL/SD_NoDRL_stats.xml"/>
    </output>

    <time>
        <begin value="0"/>
        <end value="10800"/>
        <step-length value="0.1"/>
    </time>

    <processing>
        <lateral-resolution value="0.1"/>
        <collision.action value="none"/>
        <collision.check-junctions value="false"/>
        <collision.mingap-factor value="0"/>
    </processing>

    <report>
        <no-warnings value="true"/>
    </report>

    <traci_server>
        <remote-port value="57203"/>
    </traci_server>

    <gui_only>
        <delay value="0"/>
    </gui_only>

</sumoConfiguration>
-->

<tripinfos xmlns:xsi="http://www.w3.org/2001/XMLSchema-instance" xsi:noNamespaceSchemaLocation="http://sumo.dlr.de/xsd/tripinfo_file.xsd">
    <tripinfo id="BalibagotoNuvali.0" depart="9.20" departLane="777619905_1" departPos="5.10" departPosLat="0.00" departSpeed="0.00" departDelay="0.00" arrival="86.00" arrivalLane="145507700#3_1" arrivalPos="783.31" arrivalPosLat="-0.00" arrivalSpeed="27.74" duration="76.80" routeLength="1312.87" waitingTime="0.00" waitingCount="0" stopTime="0.00" timeLoss="23.77" rerouteNo="1" devices="tripinfo_BalibagotoNuvali.0 routing_BalibagotoNuvali.0" vType="jeep" speedFactor="1.00" vaporized=""/>
    <tripinfo id="NuvalitoBiñan.0" depart="0.70" departLane="-145507700#3_1" departPos="5.10" departPosLat="0.00" departSpeed="27.96" departDelay="0.00" arrival="87.50" arrivalLane="-553887793#0_2" arrivalPos="201.31" arrivalPosLat="0.00" arrivalSpeed="27.94" duration="86.80" routeLength="2093.39" waitingTime="0.00" waitingCount="0" stopTime="0.00" timeLoss="10.61" rerouteNo="1" devices="tripinfo_NuvalitoBiñan.0 routing_NuvalitoBiñan.0" vType="car" speedFactor="1.01" vaporized=""/>
    <personinfo id="PalengketoJollibee.0" depart="0.00" type="ped" speedFactor="1.16" duration="118.00" waitingTime="4.10" timeLoss="15.58" traveltime="118.00">
        <walk depart="0.00" departPos="25.00" arrival="118.00" arrivalPos="5.21" duration="118.00" routeLength="164.52" timeLoss="15.58" maxSpeed="1.61" waitingTime="4.10"/>
    </personinfo>
    <personinfo id="JollibeetoPalengke.0" depart="0.00" type="ped" speedFactor="1.06" duration="118.30" waitingTime="0.00" timeLoss="11.47" traveltime="118.30">
        <walk depart="0.00" departPos="10.42" arrival="118.30" arrivalPos="27.04" duration="118.30" routeLength="157.27" timeLoss="11.47" maxSpeed="1.47" waitingTime="0.00"/>
    </personinfo>
    <tripinfo id="NuvalitoBalibago.0" depart="8.30" departLane="-145507700#3_1" departPos="2.30" departPosLat="0.00" departSpeed="30.57" departDelay="0.00" arrival="129.70" arrivalLane="32083201#1_1" arrivalPos="58.53" arrivalPosLat="0.00" arrivalSpeed="15.23" duration="121.40" routeLength="2060.89" waitingTime="0.00" waitingCount="0" stopTime="0.00" timeLoss="25.08" rerouteNo="1" devices="tripinfo_NuvalitoBalibago.0 routing_NuvalitoBalibago.0" vType="tricycle" speedFactor="1.10" vaporized=""/>
    <personinfo id="JollibeetoPalengke.1" depart="45.00" type="ped" speedFactor="0.94" duration="134.00" waitingTime="0.00" timeLoss="13.32" traveltime="134.00">
        <walk depart="45.00" departPos="10.42" arrival="179.00" arrivalPos="27.04" duration="134.00" routeLength="157.27" timeLoss="13.32" maxSpeed="1.30" waitingTime="0.00"/>
    </personinfo>
    <personinfo id="PalengketoJollibee.1" depart="45.00" type="ped" speedFactor="0.87" duration="152.80" waitingTime="1.80" timeLoss="17.24" traveltime="152.80">
        <walk depart="45.00" departPos="25.00" arrival="197.80" arrivalPos="5.21" duration="152.80" routeLength="164.52" timeLoss="17.24" maxSpeed="1.21" waitingTime="1.80"/>
    </personinfo>
    <tripinfo id="NuvalitoBalibago.1" depart="68.00" departLane="-145507700#3_1" departPos="8.10" departPosLat="0.00" departSpeed="27.78" departDelay="0.00" arrival="208.70" arrivalLane="32083201#1_1" arrivalPos="58.53" arrivalPosLat="0.00" arrivalSpeed="13.85" duration="140.70" routeLength="2055.09" waitingTime="0.00" waitingCount="0" stopTime="0.00" timeLoss="34.78" rerouteNo="1" devices="tripinfo_NuvalitoBalibago.1 routing_NuvalitoBalibago.1" vType="jeep" speedFactor="1.00" vaporized=""/>
    <tripinfo id="CalambatoBiñan.0" depart="32.70" departLane="185930141#0_1" departPos="5.10" departPosLat="0.00" departSpeed="30.77" departDelay="0.00" arrival="214.10" arrivalLane="-553887793#0_1" arrivalPos="201.31" arrivalPosLat="0.00" arrivalSpeed="30.76" duration="181.40" routeLength="1507.67" waitingTime="115.20" waitingCount="1" stopTime="0.00" timeLoss="132.35" rerouteNo="1" devices="tripinfo_CalambatoBiñan.0 routing_CalambatoBiñan.0" vType="car" speedFactor="1.11" vaporized=""/>
    <personinfo id="JollibeetoPalengke.2" depart="90.00" type="ped" speedFactor="1.01" duration="124.50" waitingTime="0.00" timeLoss="12.43" traveltime="124.50">
        <walk depart="90.00" departPos="10.42" arrival="214.50" arrivalPos="27.04" duration="124.50" routeLength="157.27" timeLoss="12.43" maxSpeed="1.40" waitingTime="0.00"/>
    </personinfo>
    <tripinfo id="BalibagotoBiñan.0" depart="13.70" departLane="145507698_1" departPos="2.30" departPosLat="0.00" departSpeed="9.75" departDelay="0.00" arrival="216.40" arrivalLane="-553887793#0_2" arrivalPos="201.31" arrivalPosLat="0.00" arrivalSpeed="29.98" duration="202.70" routeLength="1690.81" waitingTime="90.20" waitingCount="1" stopTime="0.00" timeLoss="118.76" rerouteNo="1" devices="tripinfo_BalibagotoBiñan.0 routing_BalibagotoBiñan.0" vType="tricycle" speedFactor="1.08" vaporized=""/>
    <tripinfo id="BalibagotoBiñan.1" depart="37.20" departLane="145507698_1" departPos="7.55" departPosLat="0.00" departSpeed="0.00" departDelay="0.00" arrival="224.10" arrivalLane="-553887793#0_2" arrivalPos="201.31" arrivalPosLat="0.00" arrivalSpeed="27.75" duration="186.90" routeLength="1682.41" waitingTime="41.20" waitingCount="1" stopTime="0.00" timeLoss="96.72" rerouteNo="1" devices="tripinfo_BalibagotoBiñan.1 routing_BalibagotoBiñan.1" vType="jeep" speedFactor="1.00" vaporized=""/>
    <tripinfo id="BalibagotoNuvali.1" depart="139.30" departLane="777619905_1" departPos="5.10" departPosLat="0.00" departSpeed="0.00" departDelay="0.00" arrival="226.70" arrivalLane="145507700#3_1" arrivalPos="783.31" arrivalPosLat="-0.00" arrivalSpeed="27.73" duration="87.40" routeLength="1312.87" waitingTime="3.60" waitingCount="1" stopTime="0.00" timeLoss="34.32" rerouteNo="1" devices="tripinfo_BalibagotoNuvali.1 routing_BalibagotoNuvali.1" vType="bus" speedFactor="1.00" vaporized=""/>
    <tripinfo id="CalambatoBalibago.0" depart="150.70" departLane="185930141#0_2" departPos="2.30" departPosLat="0.00" departSpeed="26.34" departDelay="0.00" arrival="229.10" arrivalLane="89908334_1" arrivalPos="36.84" arrivalPosLat="0.00" arrivalSpeed="11.29" duration="78.40" routeLength="913.97" waitingTime="16.60" waitingCount="1" stopTime="0.00" timeLoss="34.70" rerouteNo="1" devices="tripinfo_CalambatoBalibago.0 routing_CalambatoBalibago.0" vType="tricycle" speedFactor="0.95" vaporized=""/>
    <tripinfo id="CalambatoNuvali.0" depart="49.20" departLane="185930141#0_2" departPos="2.30" departPosLat="0.00" departSpeed="30.29" departDelay="0.00" arrival="240.60" arrivalLane="145507700#3_1" arrivalPos="783.31" arrivalPosLat="-0.00" arrivalSpeed="30.21" duration="191.40" routeLength="2335.67" waitingTime="103.30" waitingCount="1" stopTime="0.00" timeLoss="112.75" rerouteNo="1" devices="tripinfo_CalambatoNuvali.0 routing_CalambatoNuvali.0" vType="motorcycle" speedFactor="1.09" vaporized=""/>
    <tripinfo id="NuvalitoStaRosa.0" depart="56.20" departLane="-145507700#3_2" departPos="2.30" departPosLat="0.00" departSpeed="28.99" departDelay="0.00" arrival="240.80" arrivalLane="-92878383#0_1" arrivalPos="603.68" arrivalPosLat="-0.00" arrivalSpeed="8.65" duration="184.60" routeLength="2602.84" waitingTime="0.00" waitingCount="0" stopTime="0.00" timeLoss="7.53" rerouteNo="1" devices="tripinfo_NuvalitoStaRosa.0 routing_NuvalitoStaRosa.0" vType="motorcycle" speedFactor="1.04" vaporized=""/>
    <personinfo id="PalengketoJollibee.2" depart="90.00" type="ped" speedFactor="0.87" duration="155.20" waitingTime="3.70" timeLoss="18.52" traveltime="155.20">
        <walk depart="90.00" departPos="25.00" arrival="245.20" arrivalPos="5.21" duration="155.20" routeLength="164.52" timeLoss="18.52" maxSpeed="1.20" waitingTime="3.70"/>
    </personinfo>
    <tripinfo id="NuvalitoCalamba.0" depart="45.30" departLane="-145507700#3_1" departPos="2.30" departPosLat="0.00" departSpeed="29.04" departDelay="0.00" arrival="248.70" arrivalLane="-185930141#0_2" arrivalPos="428.88" arrivalPosLat="0.00" arrivalSpeed="28.75" duration="203.40" routeLength="2324.56" waitingTime="110.80" waitingCount="1" stopTime="0.00" timeLoss="122.25" rerouteNo="1" devices="tripinfo_NuvalitoCalamba.0 routing_NuvalitoCalamba.0" vType="motorcycle" speedFactor="1.05" vaporized=""/>
    <personinfo id="JollibeetoPalengke.3" depart="135.00" type="ped" speedFactor="1.08" duration="116.70" waitingTime="0.00" timeLoss="12.11" traveltime="116.70">
        <walk depart="135.00" departPos="10.42" arrival="251.70" arrivalPos="27.04" duration="116.70" routeLength="157.27" timeLoss="12.11" maxSpeed="1.50" waitingTime="0.00"/>
    </personinfo>
    <personinfo id="JollibeetoSTI.0" depart="0.00" type="ped" speedFactor="1.03" duration="259.70" waitingTime="0.80" timeLoss="26.53" traveltime="259.70">
        <walk depart="0.00" departPos="10.42" arrival="259.70" arrivalPos="19.02" duration="259.70" routeLength="335.01" timeLoss="26.53" maxSpeed="1.44" waitingTime="0.80"/>
    </personinfo>
    <tripinfo id="NuvalitoCalamba.1" depart="121.00" departLane="-145507700#3_2" departPos="2.30" departPosLat="0.00" departSpeed="30.60" departDelay="0.00" arrival="261.10" arrivalLane="-185930141#0_1" arrivalPos="428.88" arrivalPosLat="1.40" arrivalSpeed="30.49" duration="140.10" routeLength="2324.56" waitingTime="31.00" waitingCount="1" stopTime="0.00" timeLoss="63.00" rerouteNo="1" devices="tripinfo_NuvalitoCalamba.1 routing_NuvalitoCalamba.1" vType="motorcycle" speedFactor="1.10" vaporized=""/>
    <tripinfo id="BalibagotoCalamba.0" depart="41.40" departLane="145507698_1" departPos="7.55" departPosLat="0.00" departSpeed="0.00" departDelay="1.00" arrival="261.80" arrivalLane="-185930141#0_1" arrivalPos="428.88" arrivalPosLat="-0.32" arrivalSpeed="27.77" duration="220.40" routeLength="1523.59" waitingTime="88.10" waitingCount="2" stopTime="0.00" timeLoss="136.10" rerouteNo="1" devices="tripinfo_BalibagotoCalamba.0 routing_BalibagotoCalamba.0" vType="jeep" speedFactor="1.00" vaporized=""/>
    <tripinfo id="BalibagotoCalamba.1" depart="80.90" departLane="145507698_1" departPos="7.55" departPosLat="0.00" departSpeed="0.00" departDelay="0.00" arrival="262.40" arrivalLane="-185930141#0_2" arrivalPos="428.88" arrivalPosLat="0.00" arrivalSpeed="27.73" duration="181.50" routeLength="1526.74" waitingTime="49.30" waitingCount="1" stopTime="0.00" timeLoss="96.86" rerouteNo="1" devices="tripinfo_BalibagotoCalamba.1 routing_BalibagotoCalamba.1" vType="bus" speedFactor="1.00" vaporized=""/>
    <tripinfo id="BalibagotoCalamba.2" depart="85.30" departLane="145507698_1" departPos="2.30" departPosLat="0.00" departSpeed="0.81" departDelay="0.10" arrival="263.80" arrivalLane="-185930141#0_2" arrivalPos="428.88" arrivalPosLat="0.00" arrivalSpeed="29.44" duration="178.50" routeLength="1528.84" waitingTime="47.70" waitingCount="1" stopTime="0.00" timeLoss="98.85" rerouteNo="1" devices="tripinfo_BalibagotoCalamba.2 routing_BalibagotoCalamba.2" vType="tricycle" speedFactor="1.06" vaporized=""/>
    <tripinfo id="CalambatoBalibago.1" depart="194.30" departLane="185930141#0_2" departPos="8.10" departPosLat="0.00" departSpeed="27.78" departDelay="0.00" arrival="264.70" arrivalLane="89908334_1" arrivalPos="36.84" arrivalPosLat="0.00" arrivalSpeed="8.40" duration="70.40" routeLength="908.17" waitingTime="3.10" waitingCount="1" stopTime="0.00" timeLoss="29.04" rerouteNo="1" devices="tripinfo_CalambatoBalibago.1 routing_CalambatoBalibago.1" vType="jeep" speedFactor="1.00" vaporized=""/>
    <tripinfo id="BiñantoCalamba.1" depart="178.20" departLane="553887793#0_1" departPos="5.10" departPosLat="0.00" departSpeed="24.38" departDelay="0.00" arrival="268.20" arrivalLane="-185930141#0_1" arrivalPos="428.88" arrivalPosLat="-0.00" arrivalSpeed="24.28" duration="90.00" routeLength="1507.67" waitingTime="9.40" waitingCount="1" stopTime="0.00" timeLoss="28.12" rerouteNo="1" devices="tripinfo_BiñantoCalamba.1 routing_BiñantoCalamba.1" vType="car" speedFactor="0.88" vaporized=""/>
    <tripinfo id="BiñantoCalamba.0" depart="21.20" departLane="553887793#0_1" departPos="8.10" departPosLat="0.00" departSpeed="27.78" departDelay="0.00" arrival="272.40" arrivalLane="-185930141#0_1" arrivalPos="428.88" arrivalPosLat="0.00" arrivalSpeed="27.74" duration="251.20" routeLength="1504.67" waitingTime="173.20" waitingCount="1" stopTime="0.00" timeLoss="196.99" rerouteNo="1" devices="tripinfo_BiñantoCalamba.0 routing_BiñantoCalamba.0" vType="jeep" speedFactor="1.00" vaporized=""/>
    <tripinfo id="BalibagotoStaRosa.0" depart="56.50" departLane="145507698_1" departPos="7.55" departPosLat="0.00" departSpeed="0.00" departDelay="1.10" arrival="276.90" arrivalLane="-92878383#0_1" arrivalPos="603.68" arrivalPosLat="-0.00" arrivalSpeed="8.27" duration="220.40" routeLength="1983.33" waitingTime="0.60" waitingCount="1" stopTime="0.00" timeLoss="31.63" rerouteNo="1" devices="tripinfo_BalibagotoStaRosa.0 routing_BalibagotoStaRosa.0" vType="jeep" speedFactor="1.00" vaporized=""/>
    <personinfo id="PalengketoSTI.0" depart="0.00" type="ped" speedFactor="0.98" duration="278.80" waitingTime="2.60" timeLoss="31.96" traveltime="278.80">
        <walk depart="0.00" departPos="10.42" arrival="278.80" arrivalPos="19.02" duration="278.80" routeLength="335.01" timeLoss="31.96" maxSpeed="1.36" waitingTime="2.60"/>
    </personinfo>
    <tripinfo id="NuvalitoStaRosa.1" depart="76.20" departLane="-145507700#3_2" departPos="5.10" departPosLat="0.00" departSpeed="24.56" departDelay="0.00" arrival="296.90" arrivalLane="-92878383#0_1" arrivalPos="603.68" arrivalPosLat="-0.00" arrivalSpeed="7.34" duration="220.70" routeLength="2600.04" waitingTime="0.00" waitingCount="0" stopTime="0.00" timeLoss="11.83" rerouteNo="1" devices="tripinfo_NuvalitoStaRosa.1 routing_NuvalitoStaRosa.1" vType="car" speedFactor="0.88" vaporized=""/>
    <personinfo id="JollibeetoPalengke.4" depart="180.00" type="ped" speedFactor="1.03" duration="121.50" waitingTime="0.00" timeLoss="11.59" traveltime="121.50">
        <walk depart="180.00" departPos="10.42" arrival="301.50" arrivalPos="27.04" duration="121.50" routeLength="157.27" timeLoss="11.59" maxSpeed="1.43" waitingTime="0.00"/>
    </personinfo>
    <personinfo id="PalengketoJollibee.3" depart="135.00" type="ped" speedFactor="0.82" duration="166.70" waitingTime="6.60" timeLoss="23.05" traveltime="166.70">
        <walk depart="135.00" departPos="25.00" arrival="301.70" arrivalPos="5.21" duration="166.70" routeLength="164.52" timeLoss="23.05" maxSpeed="1.15" waitingTime="6.60"/>
    </personinfo>
    <personinfo id="PalengketoSTI.1" depart="45.00" type="ped" speedFactor="1.03" duration="262.70" waitingTime="3.00" timeLoss="29.04" traveltime="262.70">
        <walk depart="45.00" departPos="10.42" arrival="307.70" arrivalPos="19.02" duration="262.70" routeLength="335.01" timeLoss="29.04" maxSpeed="1.43" waitingTime="3.00"/>
    </personinfo>
    <tripinfo id="NuvalitoStaRosa.2" depart="111.10" departLane="-145507700#3_1" departPos="8.10" departPosLat="0.00" departSpeed="27.78" departDelay="0.00" arrival="314.50" arrivalLane="-92878383#0_1" arrivalPos="603.68" arrivalPosLat="-0.00" arrivalSpeed="8.32" duration="203.40" routeLength="2597.04" waitingTime="0.00" waitingCount="0" stopTime="0.00" timeLoss="18.82" rerouteNo="1" devices="tripinfo_NuvalitoStaRosa.2 routing_NuvalitoStaRosa.2" vType="jeep" speedFactor="1.00" vaporized=""/>
    <personinfo id="JollibeetoSTI.1" depart="45.00" type="ped" speedFactor="1.00" duration="272.40" waitingTime="1.50" timeLoss="30.73" traveltime="272.40">
        <walk depart="45.00" departPos="10.42" arrival="317.40" arrivalPos="19.02" duration="272.40" routeLength="335.01" timeLoss="30.73" maxSpeed="1.39" waitingTime="1.50"/>
    </personinfo>
    <personinfo id="STItoSakayan.0" depart="0.00" type="ped" speedFactor="0.93" duration="320.80" waitingTime="0.00" timeLoss="31.75" traveltime="320.80">
        <walk depart="0.00" departPos="25.00" arrival="320.80" arrivalPos="27.04" duration="320.80" routeLength="373.08" timeLoss="31.75" maxSpeed="1.29" waitingTime="0.00"/>
    </personinfo>
    <tripinfo id="BalibagotoBiñan.2" depart="185.50" departLane="145507698_1" departPos="7.55" departPosLat="0.00" departSpeed="0.00" departDelay="0.00" arrival="321.20" arrivalLane="-553887793#0_2" arrivalPos="201.31" arrivalPosLat="0.00" arrivalSpeed="27.73" duration="135.70" routeLength="1685.56" waitingTime="3.90" waitingCount="1" stopTime="0.00" timeLoss="45.24" rerouteNo="1" devices="tripinfo_BalibagotoBiñan.2 routing_BalibagotoBiñan.2" vType="bus" speedFactor="1.00" vaporized=""/>
    <personinfo id="STItoSakayan.1" depart="45.00" type="ped" speedFactor="1.06" duration="282.50" waitingTime="0.00" timeLoss="28.27" traveltime="282.50">
        <walk depart="45.00" departPos="25.00" arrival="327.50" arrivalPos="27.04" duration="282.50" routeLength="373.08" timeLoss="28.27" maxSpeed="1.47" waitingTime="0.00"/>
    </personinfo>
    <personinfo id="PalengketoJollibee.4" depart="180.00" type="ped" speedFactor="0.94" duration="150.40" waitingTime="9.80" timeLoss="23.99" traveltime="150.40">
        <walk depart="180.00" departPos="25.00" arrival="330.40" arrivalPos="5.21" duration="150.40" routeLength="164.52" timeLoss="23.99" maxSpeed="1.30" waitingTime="9.80"/>
    </personinfo>
    <tripinfo id="StaRosatoBiñan.0" depart="38.20" departLane="92878383#0_1" departPos="5.10" departPosLat="0.00" departSpeed="8.59" departDelay="0.00" arrival="345.00" arrivalLane="-553887793#0_1" arrivalPos="201.31" arrivalPosLat="-0.00" arrivalSpeed="28.62" duration="306.80" routeLength="1607.72" waitingTime="162.30" waitingCount="1" stopTime="0.00" timeLoss="170.28" rerouteNo="1" devices="tripinfo_StaRosatoBiñan.0 routing_StaRosatoBiñan.0" vType="car" speedFactor="1.03" vaporized=""/>
    <tripinfo id="StaRosatoBiñan.1" depart="116.60" departLane="92878383#0_1" departPos="5.10" departPosLat="0.00" departSpeed="5.25" departDelay="0.60" arrival="350.90" arrivalLane="-553887793#0_1" arrivalPos="201.31" arrivalPosLat="-0.00" arrivalSpeed="30.24" duration="234.30" routeLength="1607.72" waitingTime="81.30" waitingCount="1" stopTime="0.00" timeLoss="105.36" rerouteNo="1" devices="tripinfo_StaRosatoBiñan.1 routing_StaRosatoBiñan.1" vType="car" speedFactor="1.09" vaporized=""/>
    <personinfo id="JollibeetoSTI.2" depart="90.00" type="ped" speedFactor="1.02" duration="264.50" waitingTime="1.10" timeLoss="27.30" traveltime="264.50">
        <walk depart="90.00" departPos="10.42" arrival="354.50" arrivalPos="19.02" duration="264.50" routeLength="335.01" timeLoss="27.30" maxSpeed="1.41" waitingTime="1.10"/>
    </personinfo>
    <tripinfo id="StaRosatoBalibago.0" depart="5.30" departLane="92878383#0_1" departPos="2.30" departPosLat="0.00" departSpeed="8.79" departDelay="0.00" arrival="354.80" arrivalLane="-32083237#0_1" arrivalPos="36.46" arrivalPosLat="0.00" arrivalSpeed="15.27" duration="349.50" routeLength="1364.26" waitingTime="202.10" waitingCount="2" stopTime="0.00" timeLoss="222.45" rerouteNo="1" devices="tripinfo_StaRosatoBalibago.0 routing_StaRosatoBalibago.0" vType="tricycle" speedFactor="1.06" vaporized=""/>
    <personinfo id="PalengketoSTI.2" depart="90.00" type="ped" speedFactor="1.02" duration="268.30" waitingTime="4.20" timeLoss="31.40" traveltime="268.30">
        <walk depart="90.00" departPos="10.42" arrival="358.30" arrivalPos="19.02" duration="268.30" routeLength="335.01" timeLoss="31.40" maxSpeed="1.41" waitingTime="4.20"/>
    </personinfo>
    <tripinfo id="BalibagotoNuvali.2" depart="289.70" departLane="777619905_1" departPos="2.30" departPosLat="0.00" departSpeed="5.50" departDelay="0.00" arrival="358.70" arrivalLane="145507700#3_1" arrivalPos="783.31" arrivalPosLat="-0.00" arrivalSpeed="28.85" duration="69.00" routeLength="1315.67" waitingTime="1.10" waitingCount="1" stopTime="0.00" timeLoss="17.76" rerouteNo="1" devices="tripinfo_BalibagotoNuvali.2 routing_BalibagotoNuvali.2" vType="tricycle" speedFactor="1.04" vaporized=""/>
    <personinfo id="STItoSakayan.2" depart="90.00" type="ped" speedFactor="1.10" duration="272.80" waitingTime="0.20" timeLoss="27.84" traveltime="272.80">
        <walk depart="90.00" departPos="25.00" arrival="362.80" arrivalPos="27.04" duration="272.80" routeLength="373.08" timeLoss="27.84" maxSpeed="1.52" waitingTime="0.20"/>
    </personinfo>
    <personinfo id="PalengketoJollibee.5" depart="225.00" type="ped" speedFactor="1.01" duration="139.50" waitingTime="9.10" timeLoss="21.91" traveltime="139.50">
        <walk depart="225.00" departPos="25.00" arrival="364.50" arrivalPos="5.21" duration="139.50" routeLength="164.52" timeLoss="21.91" maxSpeed="1.40" waitingTime="9.10"/>
    </personinfo>
    <tripinfo id="BiñantoStaRosa.0" depart="24.20" departLane="553887793#0_2" departPos="5.10" departPosLat="0.00" departSpeed="26.15" departDelay="0.00" arrival="368.00" arrivalLane="-92878383#0_1" arrivalPos="603.68" arrivalPosLat="-0.00" arrivalSpeed="7.81" duration="343.80" routeLength="1785.95" waitingTime="169.30" waitingCount="1" stopTime="0.00" timeLoss="180.07" rerouteNo="1" devices="tripinfo_BiñantoStaRosa.0 routing_BiñantoStaRosa.0" vType="car" speedFactor="0.94" vaporized=""/>
    <personinfo id="JollibeetoPalengke.5" depart="225.00" type="ped" speedFactor="0.83" duration="151.80" waitingTime="0.40" timeLoss="15.53" traveltime="151.80">
        <walk depart="225.00" departPos="10.42" arrival="376.80" arrivalPos="27.04" duration="151.80" routeLength="157.27" timeLoss="15.53" maxSpeed="1.15" waitingTime="0.40"/>
    </personinfo>
    <personinfo id="PalengketoSTI.3" depart="135.00" type="ped" speedFactor="1.09" duration="251.70" waitingTime="5.70" timeLoss="30.35" traveltime="251.70">
        <walk depart="135.00" departPos="10.42" arrival="386.70" arrivalPos="19.02" duration="251.70" routeLength="335.01" timeLoss="30.35" maxSpeed="1.51" waitingTime="5.70"/>
    </personinfo>
    <personinfo id="JollibeetoPalengke.6" depart="270.00" type="ped" speedFactor="1.05" duration="120.50" waitingTime="0.30" timeLoss="12.22" traveltime="120.50">
        <walk depart="270.00" departPos="10.42" arrival="390.50" arrivalPos="27.04" duration="120.50" routeLength="157.27" timeLoss="12.22" maxSpeed="1.45" waitingTime="0.30"/>
    </personinfo>
    <tripinfo id="NuvalitoBiñan.1" depart="189.10" departLane="-145507700#3_2" departPos="5.10" departPosLat="0.00" departSpeed="28.87" departDelay="0.00" arrival="395.20" arrivalLane="-553887793#0_2" arrivalPos="201.31" arrivalPosLat="-0.00" arrivalSpeed="28.82" duration="206.10" routeLength="2093.39" waitingTime="112.30" waitingCount="1" stopTime="0.00" timeLoss="132.28" rerouteNo="1" devices="tripinfo_NuvalitoBiñan.1 routing_NuvalitoBiñan.1" vType="car" speedFactor="1.04" vaporized=""/>
    <tripinfo id="StaRosatoNuvali.0" depart="193.30" departLane="92878383#0_1" departPos="2.30" departPosLat="0.00" departSpeed="7.53" departDelay="0.00" arrival="396.70" arrivalLane="145507700#3_1" arrivalPos="783.31" arrivalPosLat="0.00" arrivalSpeed="25.03" duration="203.40" routeLength="2448.66" waitingTime="0.00" waitingCount="0" stopTime="0.00" timeLoss="14.79" rerouteNo="1" devices="tripinfo_StaRosatoNuvali.0 routing_StaRosatoNuvali.0" vType="tricycle" speedFactor="0.90" vaporized=""/>
    <tripinfo id="CalambatoBalibago.2" depart="238.20" departLane="185930141#0_2" departPos="8.10" departPosLat="0.00" departSpeed="27.78" departDelay="0.00" arrival="397.10" arrivalLane="89908334_1" arrivalPos="36.84" arrivalPosLat="0.00" arrivalSpeed="8.99" duration="158.90" routeLength="908.17" waitingTime="88.70" waitingCount="1" stopTime="0.00" timeLoss="117.75" rerouteNo="1" devices="tripinfo_CalambatoBalibago.2 routing_CalambatoBalibago.2" vType="jeep" speedFactor="1.00" vaporized=""/>
    <tripinfo id="BiñantoStaRosa.1" depart="250.00" departLane="553887793#0_2" departPos="5.10" departPosLat="0.00" departSpeed="29.54" departDelay="0.00" arrival="398.10" arrivalLane="-92878383#0_1" arrivalPos="603.68" arrivalPosLat="-0.00" arrivalSpeed="8.82" duration="148.10" routeLength="1785.95" waitingTime="0.00" waitingCount="0" stopTime="0.00" timeLoss="3.12" rerouteNo="1" devices="tripinfo_BiñantoStaRosa.1 routing_BiñantoStaRosa.1" vType="car" speedFactor="1.06" vaporized=""/>
    <tripinfo id="NuvalitoBiñan.2" depart="271.60" departLane="-145507700#3_1" departPos="2.30" departPosLat="0.00" departSpeed="24.26" departDelay="0.00" arrival="399.40" arrivalLane="-553887793#0_2" arrivalPos="201.31" arrivalPosLat="0.00" arrivalSpeed="24.09" duration="127.80" routeLength="2096.19" waitingTime="23.30" waitingCount="3" stopTime="0.00" timeLoss="39.91" rerouteNo="1" devices="tripinfo_NuvalitoBiñan.2 routing_NuvalitoBiñan.2" vType="motorcycle" speedFactor="0.87" vaporized=""/>
    <tripinfo id="BalibagotoStaRosa.1" depart="214.70" departLane="145507698_1" departPos="2.30" departPosLat="0.00" departSpeed="9.75" departDelay="0.00" arrival="401.00" arrivalLane="-92878383#0_1" arrivalPos="603.68" arrivalPosLat="0.00" arrivalSpeed="9.21" duration="186.30" routeLength="1991.73" waitingTime="0.00" waitingCount="0" stopTime="0.00" timeLoss="16.18" rerouteNo="1" devices="tripinfo_BalibagotoStaRosa.1 routing_BalibagotoStaRosa.1" vType="tricycle" speedFactor="1.11" vaporized=""/>
    <tripinfo id="CalambatoBalibago.3" depart="267.10" departLane="185930141#0_2" departPos="8.10" departPosLat="0.00" departSpeed="27.78" departDelay="0.00" arrival="401.20" arrivalLane="89908334_1" arrivalPos="36.84" arrivalPosLat="0.00" arrivalSpeed="8.91" duration="134.10" routeLength="908.17" waitingTime="56.30" waitingCount="1" stopTime="0.00" timeLoss="92.94" rerouteNo="1" devices="tripinfo_CalambatoBalibago.3 routing_CalambatoBalibago.3" vType="jeep" speedFactor="1.00" vaporized=""/>
    <tripinfo id="NuvalitoBiñan.3" depart="309.60" departLane="-145507700#3_1" departPos="5.10" departPosLat="0.00" departSpeed="23.80" departDelay="0.00" arrival="407.60" arrivalLane="-553887793#0_2" arrivalPos="201.31" arrivalPosLat="0.00" arrivalSpeed="23.78" duration="98.00" routeLength="2093.39" waitingTime="0.00" waitingCount="0" stopTime="0.00" timeLoss="8.51" rerouteNo="1" devices="tripinfo_NuvalitoBiñan.3 routing_NuvalitoBiñan.3" vType="car" speedFactor="0.86" vaporized=""/>
    <tripinfo id="BalibagotoNuvali.3" depart="337.00" departLane="777619905_1" departPos="5.10" departPosLat="0.00" departSpeed="0.00" departDelay="0.00" arrival="413.50" arrivalLane="145507700#3_1" arrivalPos="783.31" arrivalPosLat="-0.00" arrivalSpeed="27.78" duration="76.50" routeLength="1312.87" waitingTime="0.00" waitingCount="0" stopTime="0.00" timeLoss="23.43" rerouteNo="1" devices="tripinfo_BalibagotoNuvali.3 routing_BalibagotoNuvali.3" vType="jeep" speedFactor="1.00" vaporized=""/>
    <tripinfo id="StaRosatoCalamba.2" depart="94.90" departLane="92878383#0_1" departPos="5.10" departPosLat="0.00" departSpeed="2.18" departDelay="0.20" arrival="413.80" arrivalLane="-185930141#0_1" arrivalPos="428.88" arrivalPosLat="-0.00" arrivalSpeed="27.36" duration="318.90" routeLength="1855.46" waitingTime="125.10" waitingCount="2" stopTime="0.00" timeLoss="166.93" rerouteNo="1" devices="tripinfo_StaRosatoCalamba.2 routing_StaRosatoCalamba.2" vType="car" speedFactor="0.99" vaporized=""/>
    <tripinfo id="BalibagotoCalamba.3" depart="277.20" departLane="145507698_1" departPos="2.30" departPosLat="0.00" departSpeed="9.75" departDelay="0.00" arrival="414.50" arrivalLane="-185930141#0_2" arrivalPos="428.88" arrivalPosLat="0.00" arrivalSpeed="31.85" duration="137.30" routeLength="1531.99" waitingTime="38.00" waitingCount="1" stopTime="0.00" timeLoss="63.31" rerouteNo="1" devices="tripinfo_BalibagotoCalamba.3 routing_BalibagotoCalamba.3" vType="tricycle" speedFactor="1.15" vaporized=""/>
    <personinfo id="JollibeetoSTI.3" depart="135.00" type="ped" speedFactor="0.97" duration="279.80" waitingTime="1.80" timeLoss="30.36" traveltime="279.80">
        <walk depart="135.00" departPos="10.42" arrival="414.80" arrivalPos="19.02" duration="279.80" routeLength="335.01" timeLoss="30.36" maxSpeed="1.34" waitingTime="1.80"/>
    </personinfo>
    <tripinfo id="StaRosatoNuvali.1" depart="235.40" departLane="92878383#0_1" departPos="7.20" departPosLat="0.00" departSpeed="8.95" departDelay="0.00" arrival="414.80" arrivalLane="145507700#3_1" arrivalPos="783.31" arrivalPosLat="0.20" arrivalSpeed="29.00" duration="179.40" routeLength="2443.76" waitingTime="0.00" waitingCount="0" stopTime="0.00" timeLoss="21.31" rerouteNo="1" devices="tripinfo_StaRosatoNuvali.1 routing_StaRosatoNuvali.1" vType="truck" speedFactor="1.07" vaporized=""/>