<?xml version="1.0" encoding="UTF-8"?>

<!-- generated on 2026-02-22 19:16:47 by Eclipse SUMO sumo Version 1.24.0
<sumoConfiguration xmlns:xsi="http://www.w3.org/2001/XMLSchema-instance" xsi:noNamespaceSchemaLocation="http://sumo.dlr.de/xsd/sumoConfiguration.xsd">

    <input>
        <net-file value="Balibago_traci/network/balibago_signalized.net.xml"/>
        <route-files value="Balibago_traci/demand/flows_normal_traffic.rou.xml"/>
        <additional-files value="Balibago_traci/additionals/balibago.poly.xml,Balibago_traci/ additionals/balibago.add.xml"/>
    </input>

    <output>
        <tripinfo-output value="Balibago_traci/output_NoDRL/SD_NoDRL_normal_trips.xml"/>
        <statistic-output value="Balibago_traci/output_NoDRL/SD_NoDRL_normal_stats.xml"/>
    </output>

    <time>
        <begin value="0"/>
        <end value="10800"/>
        <step-length value="0.1"/>
    </time>

    <processing>
        <lateral-resolution value="0.1"/>
        <collision.action value="none"/>
        <collision.check-junctions value="false"/>
        <collision.mingap-factor value="0"/>
    </processing>

    <report>
        <no-warnings value="true"/>
    </report>

    <traci_server>
        <remote-port value="58594"/>
    </traci_server>

    <gui_only>
        <delay value="0"/>
    </gui_only>

</sumoConfiguration>
-->

<tripinfos xmlns:xsi="http://www.w3.org/2001/XMLSchema-instance" xsi:noNamespaceSchemaLocation="http://sumo.dlr.de/xsd/tripinfo_file.xsd">
    <tripinfo id="BalibagotoNuvali.0" depart="9.20" departLane="777619905_1" departPos="5.10" departPosLat="0.00" departSpeed="0.00" departDelay="0.00" arrival="85.70" arrivalLane="145507700#3_1" arrivalPos="783.31" arrivalPosLat="-0.00" arrivalSpeed="27.75" duration="76.50" routeLength="1312.87" waitingTime="0.00" waitingCount="0" stopTime="0.00" timeLoss="23.38" rerouteNo="1" devices="tripinfo_BalibagotoNuvali.0 routing_BalibagotoNuvali.0" vType="bus" speedFactor="1.00" vaporized=""/>
    <personinfo id="JollibeetoPalengke.0" depart="0.00" type="ped" speedFactor="1.06" duration="118.50" waitingTime="0.00" timeLoss="11.67" traveltime="118.50">
        <walk depart="0.00" departPos="10.42" arrival="118.50" arrivalPos="27.04" duration="118.50" routeLength="157.27" timeLoss="11.67" maxSpeed="1.47" waitingTime="0.00"/>
    </personinfo>
    <personinfo id="PalengketoJollibee.0" depart="0.00" type="ped" speedFactor="0.94" duration="139.70" waitingTime="0.00" timeLoss="13.88" traveltime="139.70">
        <walk depart="0.00" departPos="25.00" arrival="139.70" arrivalPos="5.21" duration="139.70" routeLength="164.52" timeLoss="13.88" maxSpeed="1.31" waitingTime="0.00"/>
    </personinfo>
    <tripinfo id="BiñantoBalibago.0" depart="90.20" departLane="553887793#0_1" departPos="12.10" departPosLat="0.00" departSpeed="27.78" departDelay="0.00" arrival="152.90" arrivalLane="-32083237#0_1" arrivalPos="36.46" arrivalPosLat="0.00" arrivalSpeed="11.27" duration="62.70" routeLength="992.33" waitingTime="0.00" waitingCount="0" stopTime="0.00" timeLoss="23.26" rerouteNo="1" devices="tripinfo_BiñantoBalibago.0 routing_BiñantoBalibago.0" vType="bus" speedFactor="1.00" vaporized=""/>
    <personinfo id="JollibeetoSTI.0" depart="0.00" type="ped" speedFactor="1.18" duration="228.10" waitingTime="0.80" timeLoss="23.44" traveltime="228.10">
        <walk depart="0.00" departPos="10.42" arrival="228.10" arrivalPos="19.02" duration="228.10" routeLength="335.01" timeLoss="23.44" maxSpeed="1.64" waitingTime="0.80"/>
    </personinfo>
    <personinfo id="PalengketoJollibee.1" depart="120.00" type="ped" speedFactor="1.10" duration="119.40" waitingTime="0.00" timeLoss="12.02" traveltime="119.40">
        <walk depart="120.00" departPos="25.00" arrival="239.40" arrivalPos="5.21" duration="119.40" routeLength="164.52" timeLoss="12.02" maxSpeed="1.53" waitingTime="0.00"/>
    </personinfo>
    <personinfo id="JollibeetoPalengke.1" depart="120.00" type="ped" speedFactor="0.94" duration="133.30" waitingTime="0.00" timeLoss="12.62" traveltime="133.30">
        <walk depart="120.00" departPos="10.42" arrival="253.30" arrivalPos="27.04" duration="133.30" routeLength="157.27" timeLoss="12.62" maxSpeed="1.30" waitingTime="0.00"/>
    </personinfo>
    <tripinfo id="CalambatoBalibago.0" depart="194.30" departLane="185930141#0_2" departPos="2.30" departPosLat="0.00" departSpeed="24.40" departDelay="0.00" arrival="256.30" arrivalLane="89908334_1" arrivalPos="36.84" arrivalPosLat="0.00" arrivalSpeed="10.92" duration="62.00" routeLength="913.97" waitingTime="0.00" waitingCount="0" stopTime="0.00" timeLoss="14.70" rerouteNo="1" devices="tripinfo_CalambatoBalibago.0 routing_CalambatoBalibago.0" vType="tricycle" speedFactor="0.88" vaporized=""/>
    <tripinfo id="CalambatoNuvali.0" depart="49.20" departLane="185930141#0_2" departPos="7.20" departPosLat="0.00" departSpeed="28.45" departDelay="0.00" arrival="261.10" arrivalLane="145507700#3_1" arrivalPos="783.31" arrivalPosLat="-0.00" arrivalSpeed="28.42" duration="211.90" routeLength="2330.77" waitingTime="94.70" waitingCount="1" stopTime="0.00" timeLoss="128.38" rerouteNo="1" devices="tripinfo_CalambatoNuvali.0 routing_CalambatoNuvali.0" vType="truck" speedFactor="1.02" vaporized=""/>
    <personinfo id="PalengketoSTI.0" depart="0.00" type="ped" speedFactor="0.96" duration="308.10" waitingTime="1.00" timeLoss="32.11" traveltime="308.10">
        <walk depart="0.00" departPos="25.00" arrival="308.10" arrivalPos="19.02" duration="308.10" routeLength="369.14" timeLoss="32.11" maxSpeed="1.34" waitingTime="1.00"/>
    </personinfo>
    <personinfo id="STItoSakayan.0" depart="0.00" type="ped" speedFactor="0.95" duration="312.90" waitingTime="0.00" timeLoss="30.47" traveltime="312.90">
        <walk depart="0.00" departPos="25.00" arrival="312.90" arrivalPos="27.04" duration="312.90" routeLength="373.08" timeLoss="30.47" maxSpeed="1.32" waitingTime="0.00"/>
    </personinfo>
    <personinfo id="JollibeetoSTI.1" depart="120.00" type="ped" speedFactor="1.15" duration="233.20" waitingTime="1.00" timeLoss="24.25" traveltime="233.20">
        <walk depart="120.00" departPos="10.42" arrival="353.20" arrivalPos="19.02" duration="233.20" routeLength="335.01" timeLoss="24.25" maxSpeed="1.60" waitingTime="1.00"/>
    </personinfo>
    <tripinfo id="StaRosatoBalibago.0" depart="141.60" departLane="92878383#0_1" departPos="12.10" departPosLat="0.00" departSpeed="8.33" departDelay="0.00" arrival="358.60" arrivalLane="-32083237#0_1" arrivalPos="36.46" arrivalPosLat="0.00" arrivalSpeed="11.42" duration="217.00" routeLength="1354.46" waitingTime="49.00" waitingCount="2" stopTime="0.00" timeLoss="84.11" rerouteNo="1" devices="tripinfo_StaRosatoBalibago.0 routing_StaRosatoBalibago.0" vType="bus" speedFactor="1.00" vaporized=""/>
    <personinfo id="JollibeetoPalengke.2" depart="240.00" type="ped" speedFactor="1.01" duration="124.40" waitingTime="0.00" timeLoss="12.33" traveltime="124.40">
        <walk depart="240.00" departPos="10.42" arrival="364.40" arrivalPos="27.04" duration="124.40" routeLength="157.27" timeLoss="12.33" maxSpeed="1.40" waitingTime="0.00"/>
    </personinfo>
    <tripinfo id="BiñantoStaRosa.0" depart="24.20" departLane="553887793#0_2" departPos="5.10" departPosLat="0.00" departSpeed="26.79" departDelay="0.00" arrival="364.70" arrivalLane="-92878383#0_1" arrivalPos="603.68" arrivalPosLat="-0.00" arrivalSpeed="7.99" duration="340.50" routeLength="1785.95" waitingTime="169.80" waitingCount="1" stopTime="0.00" timeLoss="180.58" rerouteNo="1" devices="tripinfo_BiñantoStaRosa.0 routing_BiñantoStaRosa.0" vType="car" speedFactor="0.96" vaporized=""/>
    <personinfo id="PalengketoJollibee.2" depart="240.00" type="ped" speedFactor="1.03" duration="127.20" waitingTime="0.00" timeLoss="12.35" traveltime="127.20">
        <walk depart="240.00" departPos="25.00" arrival="367.20" arrivalPos="5.21" duration="127.20" routeLength="164.52" timeLoss="12.35" maxSpeed="1.43" waitingTime="0.00"/>
    </personinfo>
    <tripinfo id="CalambatoBalibago.1" depart="238.20" departLane="185930141#0_2" departPos="2.30" departPosLat="0.00" departSpeed="26.36" departDelay="0.00" arrival="389.40" arrivalLane="89908334_1" arrivalPos="36.84" arrivalPosLat="0.00" arrivalSpeed="11.14" duration="151.20" routeLength="913.97" waitingTime="89.50" waitingCount="1" stopTime="0.00" timeLoss="107.61" rerouteNo="1" devices="tripinfo_CalambatoBalibago.1 routing_CalambatoBalibago.1" vType="tricycle" speedFactor="0.95" vaporized=""/>
    <tripinfo id="StaRosatoNuvali.0" depart="193.30" departLane="92878383#0_1" departPos="8.10" departPosLat="0.00" departSpeed="8.33" departDelay="0.00" arrival="395.80" arrivalLane="145507700#3_1" arrivalPos="783.31" arrivalPosLat="0.00" arrivalSpeed="27.73" duration="202.50" routeLength="2442.86" waitingTime="3.50" waitingCount="1" stopTime="0.00" timeLoss="32.71" rerouteNo="1" devices="tripinfo_StaRosatoNuvali.0 routing_StaRosatoNuvali.0" vType="jeep" speedFactor="1.00" vaporized=""/>
    <tripinfo id="CalambatoBalibago.2" depart="267.10" departLane="185930141#0_2" departPos="8.10" departPosLat="0.00" departSpeed="27.78" departDelay="0.00" arrival="398.40" arrivalLane="89908334_1" arrivalPos="36.84" arrivalPosLat="0.00" arrivalSpeed="8.89" duration="131.30" routeLength="908.17" waitingTime="56.00" waitingCount="1" stopTime="0.00" timeLoss="90.04" rerouteNo="1" devices="tripinfo_CalambatoBalibago.2 routing_CalambatoBalibago.2" vType="jeep" speedFactor="1.00" vaporized=""/>
    <personinfo id="STItoSakayan.1" depart="120.00" type="ped" speedFactor="1.01" duration="294.50" waitingTime="0.10" timeLoss="29.30" traveltime="294.50">
        <walk depart="120.00" departPos="25.00" arrival="414.50" arrivalPos="27.04" duration="294.50" routeLength="373.08" timeLoss="29.30" maxSpeed="1.41" waitingTime="0.10"/>
    </personinfo>
    <tripinfo id="StaRosatoCalamba.1" depart="93.90" departLane="92878383#0_1" departPos="5.10" departPosLat="0.00" departSpeed="7.91" departDelay="0.00" arrival="414.80" arrivalLane="-185930141#0_1" arrivalPos="428.88" arrivalPosLat="-0.00" arrivalSpeed="26.37" duration="320.90" routeLength="1855.46" waitingTime="132.60" waitingCount="2" stopTime="0.00" timeLoss="163.27" rerouteNo="1" devices="tripinfo_StaRosatoCalamba.1 routing_StaRosatoCalamba.1" vType="car" speedFactor="0.95" vaporized=""/>
    <personinfo id="PalengketoSTI.1" depart="120.00" type="ped" speedFactor="1.00" duration="295.20" waitingTime="1.20" timeLoss="30.64" traveltime="295.20">
        <walk depart="120.00" departPos="25.00" arrival="415.20" arrivalPos="19.02" duration="295.20" routeLength="369.14" timeLoss="30.64" maxSpeed="1.40" waitingTime="1.20"/>
    </personinfo>
    <personinfo id="JollibeetoTarget.0" depart="0.00" type="ped" speedFactor="1.08" duration="415.90" waitingTime="2.20" timeLoss="46.72" traveltime="415.90">
        <walk depart="0.00" departPos="10.42" arrival="415.90" arrivalPos="16.04" duration="415.90" routeLength="555.05" timeLoss="46.72" maxSpeed="1.50" waitingTime="2.20"/>
    </personinfo>
    <tripinfo id="StaRosatoCalamba.0" depart="77.50" departLane="92878383#0_1" departPos="7.20" departPosLat="0.00" departSpeed="7.76" departDelay="0.00" arrival="421.40" arrivalLane="-185930141#0_1" arrivalPos="428.88" arrivalPosLat="-0.00" arrivalSpeed="25.87" duration="343.90" routeLength="1853.36" waitingTime="150.40" waitingCount="2" stopTime="0.00" timeLoss="183.50" rerouteNo="1" devices="tripinfo_StaRosatoCalamba.0 routing_StaRosatoCalamba.0" vType="truck" speedFactor="0.93" vaporized=""/>
    <tripinfo id="StaRosatoCalamba.2" depart="216.90" departLane="92878383#0_1" departPos="8.10" departPosLat="0.00" departSpeed="8.33" departDelay="0.00" arrival="422.90" arrivalLane="-185930141#0_2" arrivalPos="428.88" arrivalPosLat="0.00" arrivalSpeed="27.77" duration="206.00" routeLength="1852.46" waitingTime="22.70" waitingCount="1" stopTime="0.00" timeLoss="56.59" rerouteNo="1" devices="tripinfo_StaRosatoCalamba.2 routing_StaRosatoCalamba.2" vType="jeep" speedFactor="1.00" vaporized=""/>
    <tripinfo id="NuvalitoCalamba.0" depart="121.00" departLane="-145507700#3_1" departPos="8.10" departPosLat="0.00" departSpeed="27.78" departDelay="0.00" arrival="424.20" arrivalLane="-185930141#0_2" arrivalPos="428.88" arrivalPosLat="0.00" arrivalSpeed="27.75" duration="303.20" routeLength="2318.76" waitingTime="179.20" waitingCount="1" stopTime="0.00" timeLoss="218.51" rerouteNo="1" devices="tripinfo_NuvalitoCalamba.0 routing_NuvalitoCalamba.0" vType="jeep" speedFactor="1.00" vaporized=""/>
    <personinfo id="PalengketoTarget.0" depart="0.00" type="ped" speedFactor="1.10" duration="430.20" waitingTime="1.40" timeLoss="44.49" traveltime="430.20">
        <walk depart="0.00" departPos="25.00" arrival="430.20" arrivalPos="16.04" duration="430.20" routeLength="589.17" timeLoss="44.49" maxSpeed="1.53" waitingTime="1.40"/>
    </personinfo>
    <personinfo id="JollibeetoPalengke.3" depart="360.00" type="ped" speedFactor="1.08" duration="116.40" waitingTime="0.00" timeLoss="11.81" traveltime="116.40">
        <walk depart="360.00" departPos="10.42" arrival="476.40" arrivalPos="27.04" duration="116.40" routeLength="157.27" timeLoss="11.81" maxSpeed="1.50" waitingTime="0.00"/>
    </personinfo>
    <tripinfo id="NuvalitoBiñan.0" depart="405.00" departLane="-145507700#3_1" departPos="2.30" departPosLat="0.00" departSpeed="29.51" departDelay="0.00" arrival="481.80" arrivalLane="-553887793#0_2" arrivalPos="201.31" arrivalPosLat="0.00" arrivalSpeed="29.49" duration="76.80" routeLength="2096.19" waitingTime="0.00" waitingCount="0" stopTime="0.00" timeLoss="4.51" rerouteNo="1" devices="tripinfo_NuvalitoBiñan.0 routing_NuvalitoBiñan.0" vType="motorcycle" speedFactor="1.06" vaporized=""/>
    <personinfo id="PalengketoJollibee.3" depart="360.00" type="ped" speedFactor="1.02" duration="128.80" waitingTime="0.10" timeLoss="13.05" traveltime="128.80">
        <walk depart="360.00" departPos="25.00" arrival="488.80" arrivalPos="5.21" duration="128.80" routeLength="164.52" timeLoss="13.05" maxSpeed="1.42" waitingTime="0.10"/>
    </personinfo>
    <personinfo id="TargettoSakayan.0" depart="0.00" type="ped" speedFactor="0.97" duration="491.10" waitingTime="0.00" timeLoss="49.23" traveltime="491.10">
        <walk depart="0.00" departPos="25.00" arrival="491.10" arrivalPos="27.04" duration="491.10" routeLength="596.09" timeLoss="49.23" maxSpeed="1.35" waitingTime="0.00"/>
    </personinfo>
    <personinfo id="JollibeetoSTI.2" depart="240.00" type="ped" speedFactor="1.01" duration="267.90" waitingTime="1.10" timeLoss="27.94" traveltime="267.90">
        <walk depart="240.00" departPos="10.42" arrival="507.90" arrivalPos="19.02" duration="267.90" routeLength="335.01" timeLoss="27.94" maxSpeed="1.40" waitingTime="1.10"/>
    </personinfo>
    <personinfo id="PalengketoSTI.2" depart="240.00" type="ped" speedFactor="1.07" duration="279.10" waitingTime="1.50" timeLoss="31.03" traveltime="279.10">
        <walk depart="240.00" departPos="25.00" arrival="519.10" arrivalPos="19.02" duration="279.10" routeLength="369.14" timeLoss="31.03" maxSpeed="1.49" waitingTime="1.50"/>
    </personinfo>
    <personinfo id="JollibeetoTarget.1" depart="120.00" type="ped" speedFactor="1.12" duration="400.30" waitingTime="2.70" timeLoss="43.26" traveltime="400.30">
        <walk depart="120.00" departPos="10.42" arrival="520.30" arrivalPos="16.04" duration="400.30" routeLength="555.05" timeLoss="43.26" maxSpeed="1.55" waitingTime="2.70"/>
    </personinfo>
    <tripinfo id="CalambatoStaRosa.0" depart="289.50" departLane="185930141#0_1" departPos="5.10" departPosLat="0.00" departSpeed="22.64" departDelay="0.00" arrival="528.80" arrivalLane="-92878383#0_1" arrivalPos="603.68" arrivalPosLat="0.00" arrivalSpeed="6.73" duration="239.30" routeLength="1808.59" waitingTime="30.20" waitingCount="1" stopTime="0.00" timeLoss="51.68" rerouteNo="1" devices="tripinfo_CalambatoStaRosa.0 routing_CalambatoStaRosa.0" vType="car" speedFactor="0.82" vaporized=""/>
    <tripinfo id="NuvalitoStaRosa.0" depart="128.70" departLane="-145507700#3_2" departPos="5.10" departPosLat="0.00" departSpeed="26.12" departDelay="0.00" arrival="530.70" arrivalLane="-92878383#0_1" arrivalPos="603.68" arrivalPosLat="-0.00" arrivalSpeed="7.83" duration="402.00" routeLength="2600.04" waitingTime="169.90" waitingCount="1" stopTime="0.00" timeLoss="205.54" rerouteNo="1" devices="tripinfo_NuvalitoStaRosa.0 routing_NuvalitoStaRosa.0" vType="car" speedFactor="0.94" vaporized=""/>
    <tripinfo id="BalibagotoBiñan.0" depart="387.10" departLane="145507698_1" departPos="2.30" departPosLat="0.00" departSpeed="9.75" departDelay="0.00" arrival="534.70" arrivalLane="-553887793#0_1" arrivalPos="201.31" arrivalPosLat="0.00" arrivalSpeed="24.76" duration="147.60" routeLength="1690.81" waitingTime="19.30" waitingCount="1" stopTime="0.00" timeLoss="46.23" rerouteNo="1" devices="tripinfo_BalibagotoBiñan.0 routing_BalibagotoBiñan.0" vType="tricycle" speedFactor="0.89" vaporized=""/>
    <tripinfo id="CalambatoBalibago.3" depart="395.50" departLane="185930141#0_2" departPos="2.30" departPosLat="0.00" departSpeed="26.42" departDelay="0.00" arrival="550.20" arrivalLane="89908334_1" arrivalPos="36.84" arrivalPosLat="0.00" arrivalSpeed="10.94" duration="154.70" routeLength="913.97" waitingTime="92.60" waitingCount="1" stopTime="0.00" timeLoss="111.22" rerouteNo="1" devices="tripinfo_CalambatoBalibago.3 routing_CalambatoBalibago.3" vType="tricycle" speedFactor="0.95" vaporized=""/>
    <personinfo id="STItoSakayan.2" depart="240.00" type="ped" speedFactor="0.97" duration="313.80" waitingTime="6.30" timeLoss="36.85" traveltime="313.80">
        <walk depart="240.00" departPos="25.00" arrival="553.80" arrivalPos="27.04" duration="313.80" routeLength="373.08" timeLoss="36.85" maxSpeed="1.35" waitingTime="6.30"/>
    </personinfo>
    <tripinfo id="CalambatoBalibago.4" depart="410.80" departLane="185930141#0_2" departPos="8.10" departPosLat="0.00" departSpeed="27.78" departDelay="0.00" arrival="558.60" arrivalLane="89908334_1" arrivalPos="36.84" arrivalPosLat="0.00" arrivalSpeed="8.97" duration="147.80" routeLength="908.17" waitingTime="72.70" waitingCount="1" stopTime="0.00" timeLoss="106.37" rerouteNo="1" devices="tripinfo_CalambatoBalibago.4 routing_CalambatoBalibago.4" vType="jeep" speedFactor="1.00" vaporized=""/>
    <tripinfo id="CalambatoBiñan.0" depart="457.90" departLane="185930141#0_1" departPos="5.10" departPosLat="0.00" departSpeed="23.93" departDelay="0.00" arrival="561.30" arrivalLane="-553887793#0_1" arrivalPos="201.31" arrivalPosLat="0.00" arrivalSpeed="23.91" duration="103.40" routeLength="1507.67" waitingTime="26.30" waitingCount="1" stopTime="0.00" timeLoss="40.34" rerouteNo="1" devices="tripinfo_CalambatoBiñan.0 routing_CalambatoBiñan.0" vType="car" speedFactor="0.86" vaporized=""/>
    <tripinfo id="CalambatoBiñan.1" depart="480.60" departLane="185930141#0_1" departPos="8.10" departPosLat="0.00" departSpeed="27.78" departDelay="0.00" arrival="569.90" arrivalLane="-553887793#0_2" arrivalPos="201.31" arrivalPosLat="0.00" arrivalSpeed="27.76" duration="89.30" routeLength="1504.67" waitingTime="2.80" waitingCount="1" stopTime="0.00" timeLoss="35.12" rerouteNo="1" devices="tripinfo_CalambatoBiñan.1 routing_CalambatoBiñan.1" vType="jeep" speedFactor="1.00" vaporized=""/>
    <tripinfo id="CalambatoNuvali.1" depart="272.50" departLane="185930141#0_2" departPos="7.20" departPosLat="0.00" departSpeed="28.12" departDelay="0.00" arrival="577.40" arrivalLane="145507700#3_1" arrivalPos="783.31" arrivalPosLat="-0.00" arrivalSpeed="28.08" duration="304.90" routeLength="2330.77" waitingTime="161.80" waitingCount="3" stopTime="0.00" timeLoss="220.41" rerouteNo="1" devices="tripinfo_CalambatoNuvali.1 routing_CalambatoNuvali.1" vType="truck" speedFactor="1.01" vaporized=""/>
    <tripinfo id="BiñantoCalamba.0" depart="348.40" departLane="553887793#0_1" departPos="5.10" departPosLat="0.00" departSpeed="27.11" departDelay="0.00" arrival="579.50" arrivalLane="-185930141#0_1" arrivalPos="428.88" arrivalPosLat="0.00" arrivalSpeed="27.11" duration="231.10" routeLength="1507.67" waitingTime="160.70" waitingCount="1" stopTime="0.00" timeLoss="175.47" rerouteNo="1" devices="tripinfo_BiñantoCalamba.0 routing_BiñantoCalamba.0" vType="car" speedFactor="0.98" vaporized=""/>
    <tripinfo id="CalambatoNuvali.2" depart="346.20" departLane="185930141#0_2" departPos="7.20" departPosLat="0.00" departSpeed="27.38" departDelay="0.00" arrival="581.10" arrivalLane="145507700#3_1" arrivalPos="783.31" arrivalPosLat="-0.00" arrivalSpeed="27.35" duration="234.90" routeLength="2330.77" waitingTime="109.20" waitingCount="1" stopTime="0.00" timeLoss="148.11" rerouteNo="1" devices="tripinfo_CalambatoNuvali.2 routing_CalambatoNuvali.2" vType="truck" speedFactor="0.99" vaporized=""/>
    <personinfo id="PalengketoTarget.1" depart="120.00" type="ped" speedFactor="1.03" duration="461.20" waitingTime="1.50" timeLoss="47.83" traveltime="461.20">
        <walk depart="120.00" departPos="25.00" arrival="581.20" arrivalPos="16.04" duration="461.20" routeLength="589.17" timeLoss="47.83" maxSpeed="1.43" waitingTime="1.50"/>
    </personinfo>
    <personinfo id="JollibeetoSTI.3" depart="360.00" type="ped" speedFactor="1.17" duration="236.40" waitingTime="7.60" timeLoss="30.55" traveltime="236.40">
        <walk depart="360.00" departPos="10.42" arrival="596.40" arrivalPos="19.02" duration="236.40" routeLength="335.01" timeLoss="30.55" maxSpeed="1.63" waitingTime="7.60"/>
    </personinfo>
    <personinfo id="JollibeetoPalengke.4" depart="480.00" type="ped" speedFactor="1.03" duration="122.10" waitingTime="0.00" timeLoss="12.19" traveltime="122.10">
        <walk depart="480.00" departPos="10.42" arrival="602.10" arrivalPos="27.04" duration="122.10" routeLength="157.27" timeLoss="12.19" maxSpeed="1.43" waitingTime="0.00"/>
    </personinfo>
    <personinfo id="PalengketoJollibee.4" depart="480.00" type="ped" speedFactor="1.06" duration="123.90" waitingTime="0.00" timeLoss="12.24" traveltime="123.90">
        <walk depart="480.00" departPos="25.00" arrival="603.90" arrivalPos="5.21" duration="123.90" routeLength="164.52" timeLoss="12.24" maxSpeed="1.47" waitingTime="0.00"/>
    </personinfo>
    <personinfo id="PalengketoPuregold.0" depart="0.00" type="ped" speedFactor="1.10" duration="616.90" waitingTime="137.30" timeLoss="185.50" traveltime="616.90">
        <walk depart="0.00" departPos="25.00" arrival="616.90" arrivalPos="5.00" duration="616.90" routeLength="661.97" timeLoss="185.50" maxSpeed="1.53" waitingTime="137.30"/>
    </personinfo>
    <personinfo id="PuregoldtoSakayan.0" depart="0.00" type="ped" speedFactor="1.07" duration="629.10" waitingTime="139.30" timeLoss="188.48" traveltime="629.10">
        <walk depart="0.00" departPos="9.99" arrival="629.10" arrivalPos="27.04" duration="629.10" routeLength="654.93" timeLoss="188.48" maxSpeed="1.49" waitingTime="139.30"/>
    </personinfo>
    <personinfo id="PalengketoPuregold.1" depart="120.00" type="ped" speedFactor="1.04" duration="522.20" waitingTime="12.00" timeLoss="62.37" traveltime="522.20">
        <walk depart="120.00" departPos="25.00" arrival="642.20" arrivalPos="5.00" duration="522.20" routeLength="661.97" timeLoss="62.37" maxSpeed="1.44" waitingTime="12.00"/>
    </personinfo>
    <personinfo id="STItoSakayan.3" depart="360.00" type="ped" speedFactor="0.99" duration="301.80" waitingTime="0.00" timeLoss="30.39" traveltime="301.80">
        <walk depart="360.00" departPos="25.00" arrival="661.80" arrivalPos="27.04" duration="301.80" routeLength="373.08" timeLoss="30.39" maxSpeed="1.37" waitingTime="0.00"/>
    </personinfo>
    <personinfo id="TargettoSakayan.1" depart="120.00" type="ped" speedFactor="0.87" duration="550.30" waitingTime="0.00" timeLoss="55.10" traveltime="550.30">
        <walk depart="120.00" departPos="25.00" arrival="670.30" arrivalPos="27.04" duration="550.30" routeLength="596.09" timeLoss="55.10" maxSpeed="1.20" waitingTime="0.00"/>
    </personinfo>
    <personinfo id="PuregoldtoSakayan.1" depart="120.00" type="ped" speedFactor="0.94" duration="559.50" waitingTime="0.00" timeLoss="56.35" traveltime="559.50">
        <walk depart="120.00" departPos="9.99" arrival="679.50" arrivalPos="27.04" duration="559.50" routeLength="654.93" timeLoss="56.35" maxSpeed="1.30" waitingTime="0.00"/>
    </personinfo>
    <tripinfo id="BiñantoStaRosa.1" depart="347.60" departLane="553887793#0_2" departPos="8.10" departPosLat="0.00" departSpeed="27.78" departDelay="0.00" arrival="679.60" arrivalLane="-92878383#0_1" arrivalPos="603.68" arrivalPosLat="-0.00" arrivalSpeed="8.29" duration="332.00" routeLength="1782.95" waitingTime="162.40" waitingCount="1" stopTime="0.00" timeLoss="177.86" rerouteNo="1" devices="tripinfo_BiñantoStaRosa.1 routing_BiñantoStaRosa.1" vType="jeep" speedFactor="1.00" vaporized=""/>
    <personinfo id="PalengketoSTI.3" depart="360.00" type="ped" speedFactor="0.93" duration="319.80" waitingTime="1.20" timeLoss="33.09" traveltime="319.80">
        <walk depart="360.00" departPos="25.00" arrival="679.80" arrivalPos="19.02" duration="319.80" routeLength="369.14" timeLoss="33.09" maxSpeed="1.29" waitingTime="1.20"/>
    </personinfo>
    <personinfo id="JollibeetoTarget.2" depart="240.00" type="ped" speedFactor="1.02" duration="441.60" waitingTime="2.30" timeLoss="48.18" traveltime="441.60">
        <walk depart="240.00" departPos="10.42" arrival="681.60" arrivalPos="16.04" duration="441.60" routeLength="555.05" timeLoss="48.18" maxSpeed="1.41" waitingTime="2.30"/>
    </personinfo>
    <tripinfo id="StaRosatoBalibago.1" depart="313.70" departLane="92878383#0_1" departPos="8.10" departPosLat="0.00" departSpeed="8.33" departDelay="0.00" arrival="683.20" arrivalLane="-32083237#0_1" arrivalPos="36.46" arrivalPosLat="0.00" arrivalSpeed="11.53" duration="369.50" routeLength="1358.46" waitingTime="199.80" waitingCount="2" stopTime="0.00" timeLoss="236.15" rerouteNo="1" devices="tripinfo_StaRosatoBalibago.1 routing_StaRosatoBalibago.1" vType="jeep" speedFactor="1.00" vaporized=""/>
    <tripinfo id="StaRosatoBalibago.2" depart="444.60" departLane="92878383#0_1" departPos="2.30" departPosLat="0.00" departSpeed="7.55" departDelay="0.00" arrival="684.90" arrivalLane="-32083237#0_1" arrivalPos="36.46" arrivalPosLat="0.00" arrivalSpeed="13.31" duration="240.30" routeLength="1364.26" waitingTime="55.00" waitingCount="1" stopTime="0.00" timeLoss="92.39" rerouteNo="1" devices="tripinfo_StaRosatoBalibago.2 routing_StaRosatoBalibago.2" vType="tricycle" speedFactor="0.91" vaporized=""/>
    <tripinfo id="StaRosatoBalibago.3" depart="527.40" departLane="92878383#0_1" departPos="2.30" departPosLat="0.00" departSpeed="8.42" departDelay="0.00" arrival="686.20" arrivalLane="-32083237#0_1" arrivalPos="36.46" arrivalPosLat="0.00" arrivalSpeed="14.03" duration="158.80" routeLength="1364.26" waitingTime="0.00" waitingCount="0" stopTime="0.00" timeLoss="26.27" rerouteNo="1" devices="tripinfo_StaRosatoBalibago.3 routing_StaRosatoBalibago.3" vType="tricycle" speedFactor="1.01" vaporized=""/>
    <personinfo id="TargettoSakayan.2" depart="240.00" type="ped" speedFactor="1.05" duration="455.20" waitingTime="1.80" timeLoss="46.96" traveltime="455.20">
        <walk depart="240.00" departPos="25.00" arrival="695.20" arrivalPos="27.04" duration="455.20" routeLength="596.09" timeLoss="46.96" maxSpeed="1.46" waitingTime="1.80"/>
    </personinfo>
    <personinfo id="PalengketoTarget.2" depart="240.00" type="ped" speedFactor="1.03" duration="460.90" waitingTime="2.20" timeLoss="48.93" traveltime="460.90">
        <walk depart="240.00" departPos="25.00" arrival="700.90" arrivalPos="16.04" duration="460.90" routeLength="589.17" timeLoss="48.93" maxSpeed="1.43" waitingTime="2.20"/>
    </personinfo>
    <tripinfo id="StaRosatoNuvali.2" depart="511.60" departLane="92878383#0_1" departPos="5.10" departPosLat="0.00" departSpeed="9.32" departDelay="0.00" arrival="704.50" arrivalLane="145507700#3_2" arrivalPos="783.31" arrivalPosLat="0.00" arrivalSpeed="31.05" duration="192.90" routeLength="2445.86" waitingTime="11.60" waitingCount="1" stopTime="0.00" timeLoss="40.79" rerouteNo="1" devices="tripinfo_StaRosatoNuvali.2 routing_StaRosatoNuvali.2" vType="car" speedFactor="1.12" vaporized=""/>
    <tripinfo id="StaRosatoNuvali.1" depart="481.30" departLane="92878383#0_1" departPos="7.20" departPosLat="0.00" departSpeed="8.30" departDelay="0.00" arrival="708.10" arrivalLane="145507700#3_1" arrivalPos="783.31" arrivalPosLat="0.00" arrivalSpeed="27.63" duration="226.80" routeLength="2443.76" waitingTime="31.50" waitingCount="1" stopTime="0.00" timeLoss="56.32" rerouteNo="1" devices="tripinfo_StaRosatoNuvali.1 routing_StaRosatoNuvali.1" vType="truck" speedFactor="1.00" vaporized=""/>
    <tripinfo id="CalambatoBalibago.5" depart="576.00" departLane="185930141#0_2" departPos="2.30" departPosLat="0.00" departSpeed="29.60" departDelay="0.00" arrival="709.00" arrivalLane="89908334_1" arrivalPos="36.84" arrivalPosLat="0.00" arrivalSpeed="11.26" duration="133.00" routeLength="913.97" waitingTime="74.70" waitingCount="1" stopTime="0.00" timeLoss="94.17" rerouteNo="1" devices="tripinfo_CalambatoBalibago.5 routing_CalambatoBalibago.5" vType="tricycle" speedFactor="1.07" vaporized=""/>
    <tripinfo id="NuvalitoBiñan.1" depart="559.40" departLane="-145507700#3_1" departPos="5.10" departPosLat="0.00" departSpeed="27.66" departDelay="0.00" arrival="711.40" arrivalLane="-553887793#0_2" arrivalPos="201.31" arrivalPosLat="0.00" arrivalSpeed="27.62" duration="152.00" routeLength="2093.39" waitingTime="55.30" waitingCount="2" stopTime="0.00" timeLoss="74.99" rerouteNo="1" devices="tripinfo_NuvalitoBiñan.1 routing_NuvalitoBiñan.1" vType="car" speedFactor="1.00" vaporized=""/>
    <personinfo id="PalengketoJollibee.5" depart="600.00" type="ped" speedFactor="1.15" duration="114.40" waitingTime="0.00" timeLoss="11.64" traveltime="114.40">