<?xml version="1.0" encoding="UTF-8"?>

<!-- generated on 2026-02-21 10:42:09 by Eclipse SUMO sumo Version 1.24.0
<sumoConfiguration xmlns:xsi="http://www.w3.org/2001/XMLSchema-instance" xsi:noNamespaceSchemaLocation="http://sumo.dlr.de/xsd/sumoConfiguration.xsd">

    <input>
        <net-file value="Balibago_traci/network/balibago_signalized.net.xml"/>
        <route-files value="Balibago_traci/demand/flows_jam_traffic.rou.xml"/>
        <additional-files value="Balibago_traci/additionals/balibago.poly.xml,Balibago_traci/ additionals/balibago.add.xml"/>
    </input>

    <output>
        <tripinfo-output value="Balibago_traci/output_NoDRL/SD_NoDRL_jam_trips.xml"/>
        <statistic-output value="Balibago_traci/output_NoDRL/SD_NoDRL_jam_stats.xml"/>
    </output>

    <time>
        <begin value="0"/>
        <end value="10800"/>
        <step-length value="0.1"/>
    </time>

    <processing>
        <lateral-resolution value="0.1"/>
        <collision.action value="none"/>
        <collision.check-junctions value="false"/>
        <collision.mingap-factor value="0"/>
    </processing>

    <report>
        <no-warnings value="true"/>
    </report>

    <traci_server>
        <remote-port value="49767"/>
    </traci_server>

    <gui_only>
        <delay value="0"/>
    </gui_only>

</sumoConfiguration>
-->

<tripinfos xmlns:xsi="http://www.w3.org/2001/XMLSchema-instance" xsi:noNamespaceSchemaLocation="http://sumo.dlr.de/xsd/tripinfo_file.xsd">
    <tripinfo id="BalibagotoNuvali.0" depart="9.20" departLane="777619905_1" departPos="5.10" departPosLat="0.00" departSpeed="0.00" departDelay="0.00" arrival="88.40" arrivalLane="145507700#3_1" arrivalPos="783.31" arrivalPosLat="-0.00" arrivalSpeed="27.76" duration="79.20" routeLength="1312.87" waitingTime="0.00" waitingCount="0" stopTime="0.00" timeLoss="26.15" rerouteNo="1" devices="tripinfo_BalibagotoNuvali.0 routing_BalibagotoNuvali.0" vType="bus" speedFactor="1.00" vaporized=""/>
    <tripinfo id="NuvalitoBiñan.0" depart="0.70" departLane="-145507700#3_1" departPos="2.30" departPosLat="0.00" departSpeed="25.95" departDelay="0.00" arrival="91.10" arrivalLane="-553887793#0_2" arrivalPos="201.31" arrivalPosLat="0.00" arrivalSpeed="25.85" duration="90.40" routeLength="2096.19" waitingTime="0.00" waitingCount="0" stopTime="0.00" timeLoss="8.22" rerouteNo="1" devices="tripinfo_NuvalitoBiñan.0 routing_NuvalitoBiñan.0" vType="tricycle" speedFactor="0.93" vaporized=""/>
    <personinfo id="JollibeetoPalengke.0" depart="0.00" type="ped" speedFactor="1.06" duration="118.90" waitingTime="0.00" timeLoss="12.07" traveltime="118.90">
        <walk depart="0.00" departPos="10.42" arrival="118.90" arrivalPos="27.04" duration="118.90" routeLength="157.27" timeLoss="12.07" maxSpeed="1.47" waitingTime="0.00"/>
    </personinfo>
    <personinfo id="PalengketoJollibee.0" depart="0.00" type="ped" speedFactor="1.07" duration="123.10" waitingTime="0.00" timeLoss="12.41" traveltime="123.10">
        <walk depart="0.00" departPos="25.00" arrival="123.10" arrivalPos="5.21" duration="123.10" routeLength="164.52" timeLoss="12.41" maxSpeed="1.49" waitingTime="0.00"/>
    </personinfo>
    <tripinfo id="NuvalitoBalibago.0" depart="8.30" departLane="-145507700#3_1" departPos="2.30" departPosLat="0.00" departSpeed="32.64" departDelay="0.00" arrival="129.40" arrivalLane="32083201#1_1" arrivalPos="58.53" arrivalPosLat="0.00" arrivalSpeed="16.22" duration="121.10" routeLength="2060.89" waitingTime="0.00" waitingCount="0" stopTime="0.00" timeLoss="30.81" rerouteNo="1" devices="tripinfo_NuvalitoBalibago.0 routing_NuvalitoBalibago.0" vType="tricycle" speedFactor="1.17" vaporized=""/>
    <personinfo id="JollibeetoPalengke.1" depart="48.00" type="ped" speedFactor="0.94" duration="140.60" waitingTime="6.30" timeLoss="19.92" traveltime="140.60">
        <walk depart="48.00" departPos="10.42" arrival="188.60" arrivalPos="27.04" duration="140.60" routeLength="157.27" timeLoss="19.92" maxSpeed="1.30" waitingTime="6.30"/>
    </personinfo>
    <personinfo id="PalengketoJollibee.1" depart="48.00" type="ped" speedFactor="0.94" duration="140.60" waitingTime="0.00" timeLoss="14.21" traveltime="140.60">
        <walk depart="48.00" departPos="25.00" arrival="188.60" arrivalPos="5.21" duration="140.60" routeLength="164.52" timeLoss="14.21" maxSpeed="1.30" waitingTime="0.00"/>
    </personinfo>
    <personinfo id="JollibeetoPalengke.2" depart="96.00" type="ped" speedFactor="1.01" duration="124.80" waitingTime="0.00" timeLoss="12.73" traveltime="124.80">
        <walk depart="96.00" departPos="10.42" arrival="220.80" arrivalPos="27.04" duration="124.80" routeLength="157.27" timeLoss="12.73" maxSpeed="1.40" waitingTime="0.00"/>
    </personinfo>
    <tripinfo id="CalambatoBiñan.0" depart="32.70" departLane="185930141#0_1" departPos="8.10" departPosLat="0.00" departSpeed="27.78" departDelay="0.00" arrival="223.70" arrivalLane="-553887793#0_1" arrivalPos="201.31" arrivalPosLat="0.00" arrivalSpeed="27.72" duration="191.00" routeLength="1504.67" waitingTime="110.50" waitingCount="1" stopTime="0.00" timeLoss="136.83" rerouteNo="1" devices="tripinfo_CalambatoBiñan.0 routing_CalambatoBiñan.0" vType="jeep" speedFactor="1.00" vaporized=""/>
    <tripinfo id="BalibagotoBiñan.0" depart="37.20" departLane="145507698_1" departPos="7.55" departPosLat="0.00" departSpeed="0.00" departDelay="0.00" arrival="223.90" arrivalLane="-553887793#0_2" arrivalPos="201.31" arrivalPosLat="0.00" arrivalSpeed="27.72" duration="186.70" routeLength="1682.41" waitingTime="35.70" waitingCount="2" stopTime="0.00" timeLoss="96.56" rerouteNo="1" devices="tripinfo_BalibagotoBiñan.0 routing_BalibagotoBiñan.0" vType="jeep" speedFactor="1.00" vaporized=""/>
    <personinfo id="PalengketoJollibee.2" depart="96.00" type="ped" speedFactor="0.98" duration="134.50" waitingTime="0.00" timeLoss="13.71" traveltime="134.50">
        <walk depart="96.00" departPos="25.00" arrival="230.50" arrivalPos="5.21" duration="134.50" routeLength="164.52" timeLoss="13.71" maxSpeed="1.36" waitingTime="0.00"/>
    </personinfo>
    <tripinfo id="CalambatoBalibago.0" depart="150.70" departLane="185930141#0_2" departPos="2.30" departPosLat="0.00" departSpeed="21.61" departDelay="0.00" arrival="232.80" arrivalLane="89908334_1" arrivalPos="36.84" arrivalPosLat="0.00" arrivalSpeed="10.79" duration="82.10" routeLength="913.97" waitingTime="12.10" waitingCount="1" stopTime="0.00" timeLoss="28.81" rerouteNo="1" devices="tripinfo_CalambatoBalibago.0 routing_CalambatoBalibago.0" vType="tricycle" speedFactor="0.78" vaporized=""/>
    <tripinfo id="NuvalitoStaRosa.0" depart="56.20" departLane="-145507700#3_2" departPos="2.30" departPosLat="0.00" departSpeed="29.07" departDelay="0.00" arrival="241.30" arrivalLane="-92878383#0_1" arrivalPos="603.68" arrivalPosLat="-0.00" arrivalSpeed="8.47" duration="185.10" routeLength="2602.84" waitingTime="0.00" waitingCount="0" stopTime="0.00" timeLoss="8.47" rerouteNo="1" devices="tripinfo_NuvalitoStaRosa.0 routing_NuvalitoStaRosa.0" vType="motorcycle" speedFactor="1.05" vaporized=""/>
    <tripinfo id="CalambatoNuvali.0" depart="49.20" departLane="185930141#0_2" departPos="5.10" departPosLat="0.00" departSpeed="26.95" departDelay="0.00" arrival="253.10" arrivalLane="145507700#3_1" arrivalPos="783.31" arrivalPosLat="-0.00" arrivalSpeed="26.92" duration="203.90" routeLength="2332.87" waitingTime="95.70" waitingCount="1" stopTime="0.00" timeLoss="115.74" rerouteNo="1" devices="tripinfo_CalambatoNuvali.0 routing_CalambatoNuvali.0" vType="car" speedFactor="0.97" vaporized=""/>
    <tripinfo id="NuvalitoCalamba.0" depart="45.30" departLane="-145507700#3_1" departPos="5.10" departPosLat="0.00" departSpeed="27.23" departDelay="0.00" arrival="253.70" arrivalLane="-185930141#0_1" arrivalPos="428.88" arrivalPosLat="-0.00" arrivalSpeed="27.15" duration="208.40" routeLength="2321.76" waitingTime="96.50" waitingCount="1" stopTime="0.00" timeLoss="121.95" rerouteNo="1" devices="tripinfo_NuvalitoCalamba.0 routing_NuvalitoCalamba.0" vType="car" speedFactor="0.98" vaporized=""/>
    <tripinfo id="BalibagotoCalamba.0" depart="40.60" departLane="145507698_1" departPos="2.30" departPosLat="0.00" departSpeed="0.63" departDelay="0.20" arrival="255.50" arrivalLane="-185930141#0_1" arrivalPos="428.88" arrivalPosLat="0.00" arrivalSpeed="27.96" duration="214.90" routeLength="1531.99" waitingTime="97.10" waitingCount="2" stopTime="0.00" timeLoss="130.94" rerouteNo="1" devices="tripinfo_BalibagotoCalamba.0 routing_BalibagotoCalamba.0" vType="tricycle" speedFactor="1.01" vaporized=""/>
    <tripinfo id="BiñantoCalamba.0" depart="21.20" departLane="553887793#0_1" departPos="2.30" departPosLat="0.00" departSpeed="30.40" departDelay="0.00" arrival="256.60" arrivalLane="-185930141#0_1" arrivalPos="428.88" arrivalPosLat="0.00" arrivalSpeed="30.11" duration="235.40" routeLength="1510.47" waitingTime="176.80" waitingCount="1" stopTime="0.00" timeLoss="185.63" rerouteNo="1" devices="tripinfo_BiñantoCalamba.0 routing_BiñantoCalamba.0" vType="motorcycle" speedFactor="1.09" vaporized=""/>
    <tripinfo id="CalambatoBalibago.1" depart="194.30" departLane="185930141#0_2" departPos="12.10" departPosLat="0.00" departSpeed="27.78" departDelay="0.00" arrival="258.40" arrivalLane="89908334_1" arrivalPos="36.84" arrivalPosLat="0.00" arrivalSpeed="9.03" duration="64.10" routeLength="904.17" waitingTime="0.00" waitingCount="0" stopTime="0.00" timeLoss="22.99" rerouteNo="1" devices="tripinfo_CalambatoBalibago.1 routing_CalambatoBalibago.1" vType="bus" speedFactor="1.00" vaporized=""/>
    <personinfo id="JollibeetoPalengke.3" depart="144.00" type="ped" speedFactor="1.08" duration="116.60" waitingTime="0.00" timeLoss="12.01" traveltime="116.60">
        <walk depart="144.00" departPos="10.42" arrival="260.60" arrivalPos="27.04" duration="116.60" routeLength="157.27" timeLoss="12.01" maxSpeed="1.50" waitingTime="0.00"/>
    </personinfo>
    <tripinfo id="BalibagotoCalamba.1" depart="80.90" departLane="145507698_1" departPos="7.55" departPosLat="0.00" departSpeed="0.00" departDelay="0.00" arrival="262.10" arrivalLane="-185930141#0_2" arrivalPos="428.88" arrivalPosLat="0.00" arrivalSpeed="27.76" duration="181.20" routeLength="1523.59" waitingTime="48.30" waitingCount="1" stopTime="0.00" timeLoss="96.85" rerouteNo="1" devices="tripinfo_BalibagotoCalamba.1 routing_BalibagotoCalamba.1" vType="jeep" speedFactor="1.00" vaporized=""/>
    <tripinfo id="NuvalitoStaRosa.1" depart="76.20" departLane="-145507700#3_1" departPos="5.10" departPosLat="0.00" departSpeed="29.17" departDelay="0.00" arrival="265.60" arrivalLane="-92878383#0_1" arrivalPos="603.68" arrivalPosLat="-0.00" arrivalSpeed="8.69" duration="189.40" routeLength="2600.04" waitingTime="0.00" waitingCount="0" stopTime="0.00" timeLoss="13.61" rerouteNo="1" devices="tripinfo_NuvalitoStaRosa.1 routing_NuvalitoStaRosa.1" vType="car" speedFactor="1.05" vaporized=""/>
    <tripinfo id="BiñantoCalamba.1" depart="178.20" departLane="553887793#0_1" departPos="2.30" departPosLat="0.00" departSpeed="20.90" departDelay="0.00" arrival="269.70" arrivalLane="-185930141#0_1" arrivalPos="428.88" arrivalPosLat="0.00" arrivalSpeed="20.80" duration="91.50" routeLength="1510.47" waitingTime="6.30" waitingCount="1" stopTime="0.00" timeLoss="19.22" rerouteNo="1" devices="tripinfo_BiñantoCalamba.1 routing_BiñantoCalamba.1" vType="motorcycle" speedFactor="0.75" vaporized=""/>
    <personinfo id="PalengketoJollibee.3" depart="144.00" type="ped" speedFactor="1.04" duration="126.40" waitingTime="0.00" timeLoss="12.81" traveltime="126.40">
        <walk depart="144.00" departPos="25.00" arrival="270.40" arrivalPos="5.21" duration="126.40" routeLength="164.52" timeLoss="12.81" maxSpeed="1.45" waitingTime="0.00"/>
    </personinfo>
    <personinfo id="JollibeetoSTI.0" depart="0.00" type="ped" speedFactor="0.98" duration="272.20" waitingTime="0.80" timeLoss="27.29" traveltime="272.20">
        <walk depart="0.00" departPos="10.42" arrival="272.20" arrivalPos="19.02" duration="272.20" routeLength="335.01" timeLoss="27.29" maxSpeed="1.37" waitingTime="0.80"/>
    </personinfo>
    <tripinfo id="BalibagotoStaRosa.0" depart="55.40" departLane="145507698_1" departPos="7.55" departPosLat="0.00" departSpeed="0.00" departDelay="0.00" arrival="274.80" arrivalLane="-92878383#0_1" arrivalPos="603.68" arrivalPosLat="-0.00" arrivalSpeed="8.29" duration="219.40" routeLength="1983.33" waitingTime="0.00" waitingCount="0" stopTime="0.00" timeLoss="30.76" rerouteNo="1" devices="tripinfo_BalibagotoStaRosa.0 routing_BalibagotoStaRosa.0" vType="jeep" speedFactor="1.00" vaporized=""/>
    <personinfo id="STItoSakayan.0" depart="0.00" type="ped" speedFactor="1.00" duration="305.70" waitingTime="7.20" timeLoss="36.68" traveltime="305.70">
        <walk depart="0.00" departPos="25.00" arrival="305.70" arrivalPos="27.04" duration="305.70" routeLength="373.08" timeLoss="36.68" maxSpeed="1.39" waitingTime="7.20"/>
    </personinfo>
    <personinfo id="JollibeetoPalengke.4" depart="192.00" type="ped" speedFactor="1.03" duration="122.60" waitingTime="0.60" timeLoss="12.69" traveltime="122.60">
        <walk depart="192.00" departPos="10.42" arrival="314.60" arrivalPos="27.04" duration="122.60" routeLength="157.27" timeLoss="12.69" maxSpeed="1.43" waitingTime="0.60"/>
    </personinfo>
    <tripinfo id="NuvalitoStaRosa.2" depart="111.10" departLane="-145507700#3_1" departPos="7.20" departPosLat="0.00" departSpeed="27.40" departDelay="0.00" arrival="316.00" arrivalLane="-92878383#0_1" arrivalPos="603.68" arrivalPosLat="-0.00" arrivalSpeed="8.21" duration="204.90" routeLength="2597.94" waitingTime="0.00" waitingCount="0" stopTime="0.00" timeLoss="17.72" rerouteNo="1" devices="tripinfo_NuvalitoStaRosa.2 routing_NuvalitoStaRosa.2" vType="truck" speedFactor="0.99" vaporized=""/>
    <personinfo id="JollibeetoSTI.1" depart="48.00" type="ped" speedFactor="1.03" duration="268.50" waitingTime="1.20" timeLoss="34.88" traveltime="268.50">
        <walk depart="48.00" departPos="10.42" arrival="316.50" arrivalPos="19.02" duration="268.50" routeLength="335.01" timeLoss="34.88" maxSpeed="1.43" waitingTime="1.20"/>
    </personinfo>
    <personinfo id="PalengketoSTI.1" depart="48.00" type="ped" speedFactor="1.10" duration="273.40" waitingTime="1.20" timeLoss="30.77" traveltime="273.40">
        <walk depart="48.00" departPos="25.00" arrival="321.40" arrivalPos="19.02" duration="273.40" routeLength="369.14" timeLoss="30.77" maxSpeed="1.52" waitingTime="1.20"/>
    </personinfo>
    <tripinfo id="BalibagotoBiñan.1" depart="185.50" departLane="145507698_1" departPos="7.55" departPosLat="0.00" departSpeed="0.00" departDelay="0.00" arrival="326.50" arrivalLane="-553887793#0_1" arrivalPos="201.31" arrivalPosLat="-0.00" arrivalSpeed="27.75" duration="141.00" routeLength="1682.41" waitingTime="2.40" waitingCount="1" stopTime="0.00" timeLoss="50.90" rerouteNo="1" devices="tripinfo_BalibagotoBiñan.1 routing_BalibagotoBiñan.1" vType="jeep" speedFactor="1.00" vaporized=""/>
    <personinfo id="PalengketoJollibee.4" depart="192.00" type="ped" speedFactor="0.98" duration="149.00" waitingTime="14.60" timeLoss="28.30" traveltime="149.00">
        <walk depart="192.00" departPos="25.00" arrival="341.00" arrivalPos="5.21" duration="149.00" routeLength="164.52" timeLoss="28.30" maxSpeed="1.36" waitingTime="14.60"/>
    </personinfo>
    <tripinfo id="BalibagotoNuvali.1" depart="289.70" departLane="777619905_1" departPos="2.30" departPosLat="0.00" departSpeed="5.50" departDelay="0.00" arrival="350.90" arrivalLane="145507700#3_2" arrivalPos="783.31" arrivalPosLat="0.00" arrivalSpeed="29.73" duration="61.20" routeLength="1315.67" waitingTime="0.00" waitingCount="0" stopTime="0.00" timeLoss="11.54" rerouteNo="1" devices="tripinfo_BalibagotoNuvali.1 routing_BalibagotoNuvali.1" vType="tricycle" speedFactor="1.07" vaporized=""/>
    <tripinfo id="StaRosatoBiñan.0" depart="38.20" departLane="92878383#0_1" departPos="7.20" departPosLat="0.00" departSpeed="9.30" departDelay="0.00" arrival="351.90" arrivalLane="-553887793#0_1" arrivalPos="201.31" arrivalPosLat="-0.00" arrivalSpeed="31.00" duration="313.70" routeLength="1605.62" waitingTime="171.50" waitingCount="1" stopTime="0.00" timeLoss="187.94" rerouteNo="1" devices="tripinfo_StaRosatoBiñan.0 routing_StaRosatoBiñan.0" vType="truck" speedFactor="1.12" vaporized=""/>
    <tripinfo id="StaRosatoBiñan.1" depart="116.80" departLane="92878383#0_1" departPos="7.20" departPosLat="0.00" departSpeed="5.33" departDelay="0.80" arrival="355.20" arrivalLane="-553887793#0_1" arrivalPos="201.31" arrivalPosLat="-0.00" arrivalSpeed="27.69" duration="238.40" routeLength="1605.62" waitingTime="79.20" waitingCount="1" stopTime="0.00" timeLoss="97.56" rerouteNo="1" devices="tripinfo_StaRosatoBiñan.1 routing_StaRosatoBiñan.1" vType="truck" speedFactor="1.00" vaporized=""/>
    <personinfo id="STItoSakayan.1" depart="48.00" type="ped" speedFactor="0.99" duration="308.80" waitingTime="7.10" timeLoss="37.88" traveltime="308.80">
        <walk depart="48.00" departPos="25.00" arrival="356.80" arrivalPos="27.04" duration="308.80" routeLength="373.08" timeLoss="37.88" maxSpeed="1.38" waitingTime="7.10"/>
    </personinfo>
    <tripinfo id="BiñantoStaRosa.0" depart="24.20" departLane="553887793#0_2" departPos="8.10" departPosLat="0.00" departSpeed="27.78" departDelay="0.00" arrival="364.20" arrivalLane="-92878383#0_1" arrivalPos="603.68" arrivalPosLat="-0.00" arrivalSpeed="8.28" duration="340.00" routeLength="1782.95" waitingTime="170.20" waitingCount="1" stopTime="0.00" timeLoss="185.88" rerouteNo="1" devices="tripinfo_BiñantoStaRosa.0 routing_BiñantoStaRosa.0" vType="jeep" speedFactor="1.00" vaporized=""/>
    <personinfo id="PalengketoSTI.0" depart="0.00" type="ped" speedFactor="0.81" duration="364.50" waitingTime="1.20" timeLoss="36.90" traveltime="364.50">
        <walk depart="0.00" departPos="25.00" arrival="364.50" arrivalPos="19.02" duration="364.50" routeLength="369.14" timeLoss="36.90" maxSpeed="1.13" waitingTime="1.20"/>
    </personinfo>
    <personinfo id="PalengketoSTI.2" depart="96.00" type="ped" speedFactor="1.08" duration="276.40" waitingTime="1.20" timeLoss="30.22" traveltime="276.40">
        <walk depart="96.00" departPos="25.00" arrival="372.40" arrivalPos="19.02" duration="276.40" routeLength="369.14" timeLoss="30.22" maxSpeed="1.50" waitingTime="1.20"/>
    </personinfo>
    <tripinfo id="StaRosatoBalibago.0" depart="5.30" departLane="92878383#0_1" departPos="2.30" departPosLat="0.00" departSpeed="8.33" departDelay="0.00" arrival="377.90" arrivalLane="-32083237#0_1" arrivalPos="36.46" arrivalPosLat="0.00" arrivalSpeed="14.93" duration="372.60" routeLength="1364.26" waitingTime="218.00" waitingCount="3" stopTime="0.00" timeLoss="238.64" rerouteNo="1" devices="tripinfo_StaRosatoBalibago.0 routing_StaRosatoBalibago.0" vType="tricycle" speedFactor="1.00" vaporized=""/>
    <personinfo id="JollibeetoSTI.2" depart="96.00" type="ped" speedFactor="0.98" duration="282.00" waitingTime="1.70" timeLoss="36.34" traveltime="282.00">
        <walk depart="96.00" departPos="10.42" arrival="378.00" arrivalPos="19.02" duration="282.00" routeLength="335.01" timeLoss="36.34" maxSpeed="1.36" waitingTime="1.70"/>
    </personinfo>
    <personinfo id="PalengketoJollibee.5" depart="240.00" type="ped" speedFactor="0.96" duration="139.10" waitingTime="1.70" timeLoss="15.24" traveltime="139.10">
        <walk depart="240.00" departPos="25.00" arrival="379.10" arrivalPos="5.21" duration="139.10" routeLength="164.52" timeLoss="15.24" maxSpeed="1.33" waitingTime="1.70"/>
    </personinfo>
    <personinfo id="STItoSakayan.2" depart="96.00" type="ped" speedFactor="1.05" duration="285.20" waitingTime="0.40" timeLoss="28.86" traveltime="285.20">
        <walk depart="96.00" departPos="25.00" arrival="381.20" arrivalPos="27.04" duration="285.20" routeLength="373.08" timeLoss="28.86" maxSpeed="1.46" waitingTime="0.40"/>
    </personinfo>
    <tripinfo id="CalambatoBalibago.2" depart="238.20" departLane="185930141#0_2" departPos="2.30" departPosLat="0.00" departSpeed="31.50" departDelay="0.00" arrival="387.40" arrivalLane="89908334_1" arrivalPos="36.84" arrivalPosLat="0.00" arrivalSpeed="11.17" duration="149.20" routeLength="913.97" waitingTime="92.80" waitingCount="1" stopTime="0.00" timeLoss="112.45" rerouteNo="1" devices="tripinfo_CalambatoBalibago.2 routing_CalambatoBalibago.2" vType="tricycle" speedFactor="1.13" vaporized=""/>
    <personinfo id="JollibeetoPalengke.5" depart="240.00" type="ped" speedFactor="0.83" duration="151.70" waitingTime="0.90" timeLoss="15.43" traveltime="151.70">
        <walk depart="240.00" departPos="10.42" arrival="391.70" arrivalPos="27.04" duration="151.70" routeLength="157.27" timeLoss="15.43" maxSpeed="1.15" waitingTime="0.90"/>
    </personinfo>
    <tripinfo id="NuvalitoBiñan.1" depart="271.60" departLane="-145507700#3_1" departPos="5.10" departPosLat="0.00" departSpeed="30.39" departDelay="0.00" arrival="394.40" arrivalLane="-553887793#0_2" arrivalPos="201.31" arrivalPosLat="0.00" arrivalSpeed="30.31" duration="122.80" routeLength="2093.39" waitingTime="36.20" waitingCount="1" stopTime="0.00" timeLoss="52.66" rerouteNo="1" devices="tripinfo_NuvalitoBiñan.1 routing_NuvalitoBiñan.1" vType="car" speedFactor="1.09" vaporized=""/>
    <tripinfo id="NuvalitoBiñan.2" depart="309.60" departLane="-145507700#3_2" departPos="2.30" departPosLat="0.00" departSpeed="30.57" departDelay="0.00" arrival="397.30" arrivalLane="-553887793#0_2" arrivalPos="201.31" arrivalPosLat="0.00" arrivalSpeed="30.57" duration="87.70" routeLength="2096.19" waitingTime="0.00" waitingCount="0" stopTime="0.00" timeLoss="17.88" rerouteNo="1" devices="tripinfo_NuvalitoBiñan.2 routing_NuvalitoBiñan.2" vType="tricycle" speedFactor="1.10" vaporized=""/>
    <tripinfo id="CalambatoBalibago.3" depart="267.10" departLane="185930141#0_2" departPos="8.10" departPosLat="0.00" departSpeed="27.78" departDelay="0.00" arrival="398.20" arrivalLane="89908334_1" arrivalPos="36.84" arrivalPosLat="0.00" arrivalSpeed="8.89" duration="131.10" routeLength="908.17" waitingTime="56.00" waitingCount="1" stopTime="0.00" timeLoss="89.89" rerouteNo="1" devices="tripinfo_CalambatoBalibago.3 routing_CalambatoBalibago.3" vType="jeep" speedFactor="1.00" vaporized=""/>
    <tripinfo id="StaRosatoNuvali.0" depart="193.30" departLane="92878383#0_1" departPos="8.10" departPosLat="0.00" departSpeed="8.33" departDelay="0.00" arrival="400.80" arrivalLane="145507700#3_1" arrivalPos="783.31" arrivalPosLat="0.00" arrivalSpeed="27.77" duration="207.50" routeLength="2442.86" waitingTime="7.70" waitingCount="1" stopTime="0.00" timeLoss="37.72" rerouteNo="1" devices="tripinfo_StaRosatoNuvali.0 routing_StaRosatoNuvali.0" vType="jeep" speedFactor="1.00" vaporized=""/>
    <personinfo id="TargettoSakayan.0" depart="0.00" type="ped" speedFactor="1.18" duration="407.70" waitingTime="1.90" timeLoss="43.43" traveltime="407.70">
        <walk depart="0.00" departPos="25.00" arrival="407.70" arrivalPos="27.04" duration="407.70" routeLength="596.09" timeLoss="43.43" maxSpeed="1.64" waitingTime="1.90"/>
    </personinfo>
    <personinfo id="JollibeetoPalengke.6" depart="288.00" type="ped" speedFactor="1.05" duration="120.00" waitingTime="0.10" timeLoss="11.72" traveltime="120.00">
        <walk depart="288.00" departPos="10.42" arrival="408.00" arrivalPos="27.04" duration="120.00" routeLength="157.27" timeLoss="11.72" maxSpeed="1.45" waitingTime="0.10"/>
    </personinfo>
    <tripinfo id="StaRosatoCalamba.0" depart="77.50" departLane="92878383#0_1" departPos="2.30" departPosLat="0.00" departSpeed="6.19" departDelay="0.00" arrival="409.30" arrivalLane="-185930141#0_2" arrivalPos="428.88" arrivalPosLat="0.00" arrivalSpeed="28.57" duration="331.80" routeLength="1858.26" waitingTime="162.00" waitingCount="3" stopTime="0.00" timeLoss="186.83" rerouteNo="1" devices="tripinfo_StaRosatoCalamba.0 routing_StaRosatoCalamba.0" vType="motorcycle" speedFactor="1.03" vaporized=""/>
    <tripinfo id="StaRosatoCalamba.1" depart="93.90" departLane="92878383#0_1" departPos="2.30" departPosLat="0.00" departSpeed="8.24" departDelay="0.00" arrival="410.00" arrivalLane="-185930141#0_2" arrivalPos="428.88" arrivalPosLat="-1.40" arrivalSpeed="27.40" duration="316.10" routeLength="1858.26" waitingTime="139.50" waitingCount="3" stopTime="0.00" timeLoss="164.49" rerouteNo="1" devices="tripinfo_StaRosatoCalamba.1 routing_StaRosatoCalamba.1" vType="motorcycle" speedFactor="0.99" vaporized=""/>
    <personinfo id="JollibeetoSTI.3" depart="144.00" type="ped" speedFactor="1.01" duration="267.10" waitingTime="0.80" timeLoss="27.64" traveltime="267.10">
        <walk depart="144.00" departPos="10.42" arrival="411.10" arrivalPos="19.02" duration="267.10" routeLength="335.01" timeLoss="27.64" maxSpeed="1.40" waitingTime="0.80"/>
    </personinfo>
    <personinfo id="PalengketoJollibee.6" depart="288.00" type="ped" speedFactor="1.06" duration="124.60" waitingTime="0.00" timeLoss="12.54" traveltime="124.60">
        <walk depart="288.00" departPos="25.00" arrival="412.60" arrivalPos="5.21" duration="124.60" routeLength="164.52" timeLoss="12.54" maxSpeed="1.47" waitingTime="0.00"/>
    </personinfo>
    <tripinfo id="StaRosatoCalamba.3" depart="216.90" departLane="92878383#0_1" departPos="5.10" departPosLat="0.00" departSpeed="9.33" departDelay="0.00" arrival="412.90" arrivalLane="-185930141#0_2" arrivalPos="428.88" arrivalPosLat="0.00" arrivalSpeed="31.06" duration="196.00" routeLength="1855.46" waitingTime="27.10" waitingCount="1" stopTime="0.00" timeLoss="62.21" rerouteNo="1" devices="tripinfo_StaRosatoCalamba.3 routing_StaRosatoCalamba.3" vType="car" speedFactor="1.12" vaporized=""/>
    <tripinfo id="StaRosatoCalamba.2" depart="94.90" departLane="92878383#0_1" departPos="5.10" departPosLat="0.00" departSpeed="2.79" departDelay="0.20" arrival="413.30" arrivalLane="-185930141#0_1" arrivalPos="428.88" arrivalPosLat="0.00" arrivalSpeed="28.68" duration="318.40" routeLength="1855.46" waitingTime="132.30" waitingCount="2" stopTime="0.00" timeLoss="173.57" rerouteNo="1" devices="tripinfo_StaRosatoCalamba.2 routing_StaRosatoCalamba.2" vType="car" speedFactor="1.03" vaporized=""/>
    <tripinfo id="BalibagotoNuvali.2" depart="337.00" departLane="777619905_1" departPos="5.10" departPosLat="0.00" departSpeed="0.00" departDelay="0.00" arrival="413.30" arrivalLane="145507700#3_1" arrivalPos="783.31" arrivalPosLat="-0.00" arrivalSpeed="27.73" duration="76.30" routeLength="1312.87" waitingTime="0.00" waitingCount="0" stopTime="0.00" timeLoss="23.21" rerouteNo="1" devices="tripinfo_BalibagotoNuvali.2 routing_BalibagotoNuvali.2" vType="jeep" speedFactor="1.00" vaporized=""/>
    <tripinfo id="NuvalitoCalamba.2" depart="127.60" departLane="-145507700#3_1" departPos="5.10" departPosLat="0.00" departSpeed="24.37" departDelay="0.00" arrival="417.10" arrivalLane="-185930141#0_1" arrivalPos="428.88" arrivalPosLat="-0.00" arrivalSpeed="24.29" duration="289.50" routeLength="2321.76" waitingTime="162.30" waitingCount="1" stopTime="0.00" timeLoss="192.79" rerouteNo="1" devices="tripinfo_NuvalitoCalamba.2 routing_NuvalitoCalamba.2" vType="car" speedFactor="0.88" vaporized=""/>
    <tripinfo id="BalibagotoCalamba.2" depart="277.20" departLane="145507698_1" departPos="2.30" departPosLat="0.00" departSpeed="9.75" departDelay="0.00" arrival="417.30" arrivalLane="-185930141#0_2" arrivalPos="428.88" arrivalPosLat="0.00" arrivalSpeed="27.17" duration="140.10" routeLength="1531.99" waitingTime="25.00" waitingCount="2" stopTime="0.00" timeLoss="53.47" rerouteNo="1" devices="tripinfo_BalibagotoCalamba.2 routing_BalibagotoCalamba.2" vType="tricycle" speedFactor="0.98" vaporized=""/>
    <tripinfo id="StaRosatoBalibago.1" depart="76.60" departLane="92878383#0_1" departPos="8.10" departPosLat="0.00" departSpeed="8.33" departDelay="0.00" arrival="419.60" arrivalLane="-32083237#0_1" arrivalPos="36.46" arrivalPosLat="0.00" arrivalSpeed="11.50" duration="343.00" routeLength="1358.46" waitingTime="163.50" waitingCount="4" stopTime="0.00" timeLoss="209.62" rerouteNo="1" devices="tripinfo_StaRosatoBalibago.1 routing_StaRosatoBalibago.1" vType="jeep" speedFactor="1.00" vaporized=""/>
    <tripinfo id="NuvalitoCalamba.1" depart="121.00" departLane="-145507700#3_2" departPos="2.30" departPosLat="0.00" departSpeed="23.47" departDelay="0.00" arrival="420.80" arrivalLane="-185930141#0_1" arrivalPos="428.88" arrivalPosLat="-0.00" arrivalSpeed="23.40" duration="299.80" routeLength="2324.56" waitingTime="172.10" waitingCount="2" stopTime="0.00" timeLoss="199.40" rerouteNo="1" devices="tripinfo_NuvalitoCalamba.1 routing_NuvalitoCalamba.1" vType="tricycle" speedFactor="0.84" vaporized=""/>
    <tripinfo id="StaRosatoBalibago.2" depart="78.30" departLane="92878383#0_1" departPos="2.30" departPosLat="0.00" departSpeed="2.33" departDelay="0.40" arrival="421.30" arrivalLane="-32083237#0_1" arrivalPos="36.46" arrivalPosLat="0.00" arrivalSpeed="13.34" duration="343.00" routeLength="1364.26" waitingTime="144.20" waitingCount="4" stopTime="0.00" timeLoss="202.83" rerouteNo="1" devices="tripinfo_StaRosatoBalibago.2 routing_StaRosatoBalibago.2" vType="tricycle" speedFactor="0.96" vaporized=""/>
    <tripinfo id="NuvalitoBiñan.3" depart="341.80" departLane="-145507700#3_1" departPos="5.10" departPosLat="0.00" departSpeed="30.77" departDelay="0.00" arrival="422.40" arrivalLane="-553887793#0_2" arrivalPos="201.31" arrivalPosLat="0.00" arrivalSpeed="30.71" duration="80.60" routeLength="2093.39" waitingTime="0.00" waitingCount="0" stopTime="0.00" timeLoss="11.41" rerouteNo="1" devices="tripinfo_NuvalitoBiñan.3 routing_NuvalitoBiñan.3" vType="car" speedFactor="1.11" vaporized=""/>