<?xml version="1.0" encoding="UTF-8"?>

<!-- generated on 2026-02-22 19:18:22 by Eclipse SUMO sumo Version 1.24.0
<sumoConfiguration xmlns:xsi="http://www.w3.org/2001/XMLSchema-instance" xsi:noNamespaceSchemaLocation="http://sumo.dlr.de/xsd/sumoConfiguration.xsd">

    <input>
        <net-file value="Balibago_traci/network/balibago_signalized.net.xml"/>
        <route-files value="Balibago_traci/demand/flows_jam_traffic.rou.xml"/>
        <additional-files value="Balibago_traci/additionals/balibago.poly.xml,Balibago_traci/ additionals/balibago.add.xml"/>
    </input>

    <output>
        <tripinfo-output value="Balibago_traci/output_NoDRL/SD_NoDRL_jam_trips.xml"/>
        <statistic-output value="Balibago_traci/output_NoDRL/SD_NoDRL_jam_stats.xml"/>
    </output>

    <time>
        <begin value="0"/>
        <end value="10800"/>
        <step-length value="0.1"/>
    </time>

    <processing>
        <lateral-resolution value="0.1"/>
        <collision.action value="none"/>
        <collision.check-junctions value="false"/>
        <collision.mingap-factor value="0"/>
    </processing>

    <report>
        <no-warnings value="true"/>
    </report>

    <traci_server>
        <remote-port value="55683"/>
    </traci_server>

    <gui_only>
        <delay value="0"/>
    </gui_only>

</sumoConfiguration>
-->

<tripinfos xmlns:xsi="http://www.w3.org/2001/XMLSchema-instance" xsi:noNamespaceSchemaLocation="http://sumo.dlr.de/xsd/tripinfo_file.xsd">
    <tripinfo id="NuvalitoBiñan.0" depart="0.70" departLane="-145507700#3_1" departPos="5.10" departPosLat="0.00" departSpeed="29.19" departDelay="0.00" arrival="84.50" arrivalLane="-553887793#0_2" arrivalPos="201.31" arrivalPosLat="0.00" arrivalSpeed="29.15" duration="83.80" routeLength="2093.39" waitingTime="0.00" waitingCount="0" stopTime="0.00" timeLoss="10.86" rerouteNo="1" devices="tripinfo_NuvalitoBiñan.0 routing_NuvalitoBiñan.0" vType="car" speedFactor="1.05" vaporized=""/>
    <tripinfo id="BalibagotoNuvali.0" depart="9.20" departLane="777619905_1" departPos="5.10" departPosLat="0.00" departSpeed="0.00" departDelay="0.00" arrival="85.70" arrivalLane="145507700#3_1" arrivalPos="783.31" arrivalPosLat="-0.00" arrivalSpeed="27.75" duration="76.50" routeLength="1312.87" waitingTime="0.00" waitingCount="0" stopTime="0.00" timeLoss="23.44" rerouteNo="1" devices="tripinfo_BalibagotoNuvali.0 routing_BalibagotoNuvali.0" vType="jeep" speedFactor="1.00" vaporized=""/>
    <personinfo id="PalengketoJollibee.0" depart="0.00" type="ped" speedFactor="1.21" duration="109.10" waitingTime="0.00" timeLoss="11.24" traveltime="109.10">
        <walk depart="0.00" departPos="25.00" arrival="109.10" arrivalPos="5.21" duration="109.10" routeLength="164.52" timeLoss="11.24" maxSpeed="1.68" waitingTime="0.00"/>
    </personinfo>
    <personinfo id="JollibeetoPalengke.0" depart="0.00" type="ped" speedFactor="1.06" duration="118.60" waitingTime="0.00" timeLoss="11.77" traveltime="118.60">
        <walk depart="0.00" departPos="10.42" arrival="118.60" arrivalPos="27.04" duration="118.60" routeLength="157.27" timeLoss="11.77" maxSpeed="1.47" waitingTime="0.00"/>
    </personinfo>
    <tripinfo id="NuvalitoBalibago.0" depart="8.30" departLane="-145507700#3_1" departPos="2.30" departPosLat="0.00" departSpeed="29.25" departDelay="0.00" arrival="130.00" arrivalLane="32083201#1_1" arrivalPos="58.53" arrivalPosLat="0.00" arrivalSpeed="14.60" duration="121.70" routeLength="2060.89" waitingTime="0.00" waitingCount="0" stopTime="0.00" timeLoss="20.93" rerouteNo="1" devices="tripinfo_NuvalitoBalibago.0 routing_NuvalitoBalibago.0" vType="tricycle" speedFactor="1.05" vaporized=""/>
    <personinfo id="PalengketoJollibee.1" depart="49.40" type="ped" speedFactor="1.15" duration="114.30" waitingTime="0.00" timeLoss="11.35" traveltime="114.30">
        <walk depart="49.40" departPos="25.00" arrival="163.70" arrivalPos="5.21" duration="114.30" routeLength="164.52" timeLoss="11.35" maxSpeed="1.60" waitingTime="0.00"/>
    </personinfo>
    <personinfo id="JollibeetoPalengke.1" depart="48.70" type="ped" speedFactor="0.94" duration="139.10" waitingTime="5.00" timeLoss="18.42" traveltime="139.10">
        <walk depart="48.70" departPos="10.42" arrival="187.80" arrivalPos="27.04" duration="139.10" routeLength="157.27" timeLoss="18.42" maxSpeed="1.30" waitingTime="5.00"/>
    </personinfo>
    <tripinfo id="CalambatoBiñan.0" depart="32.70" departLane="185930141#0_1" departPos="2.30" departPosLat="0.00" departSpeed="32.27" departDelay="0.00" arrival="208.50" arrivalLane="-553887793#0_1" arrivalPos="201.31" arrivalPosLat="0.00" arrivalSpeed="32.05" duration="175.80" routeLength="1510.47" waitingTime="121.20" waitingCount="1" stopTime="0.00" timeLoss="128.96" rerouteNo="1" devices="tripinfo_CalambatoBiñan.0 routing_CalambatoBiñan.0" vType="motorcycle" speedFactor="1.16" vaporized=""/>
    <personinfo id="PalengketoJollibee.2" depart="98.70" type="ped" speedFactor="1.13" duration="117.10" waitingTime="0.80" timeLoss="12.43" traveltime="117.10">
        <walk depart="98.70" departPos="25.00" arrival="215.80" arrivalPos="5.21" duration="117.10" routeLength="164.52" timeLoss="12.43" maxSpeed="1.57" waitingTime="0.80"/>
    </personinfo>
    <personinfo id="JollibeetoPalengke.2" depart="97.30" type="ped" speedFactor="1.01" duration="124.50" waitingTime="0.00" timeLoss="12.43" traveltime="124.50">
        <walk depart="97.30" departPos="10.42" arrival="221.80" arrivalPos="27.04" duration="124.50" routeLength="157.27" timeLoss="12.43" maxSpeed="1.40" waitingTime="0.00"/>
    </personinfo>
    <tripinfo id="BalibagotoBiñan.0" depart="37.20" departLane="145507698_1" departPos="7.55" departPosLat="0.00" departSpeed="0.00" departDelay="0.00" arrival="224.80" arrivalLane="-553887793#0_1" arrivalPos="201.31" arrivalPosLat="-0.00" arrivalSpeed="27.74" duration="187.60" routeLength="1682.41" waitingTime="36.20" waitingCount="2" stopTime="0.00" timeLoss="97.48" rerouteNo="1" devices="tripinfo_BalibagotoBiñan.0 routing_BalibagotoBiñan.0" vType="jeep" speedFactor="1.00" vaporized=""/>
    <tripinfo id="NuvalitoStaRosa.0" depart="56.20" departLane="-145507700#3_2" departPos="2.30" departPosLat="0.00" departSpeed="30.29" departDelay="0.00" arrival="234.90" arrivalLane="-92878383#0_1" arrivalPos="603.68" arrivalPosLat="-0.00" arrivalSpeed="8.97" duration="178.70" routeLength="2602.84" waitingTime="0.00" waitingCount="0" stopTime="0.00" timeLoss="9.27" rerouteNo="1" devices="tripinfo_NuvalitoStaRosa.0 routing_NuvalitoStaRosa.0" vType="motorcycle" speedFactor="1.09" vaporized=""/>
    <tripinfo id="CalambatoBalibago.0" depart="150.70" departLane="185930141#0_2" departPos="12.10" departPosLat="0.00" departSpeed="27.78" departDelay="0.00" arrival="236.80" arrivalLane="89908334_1" arrivalPos="36.84" arrivalPosLat="0.00" arrivalSpeed="8.84" duration="86.10" routeLength="904.17" waitingTime="15.90" waitingCount="1" stopTime="0.00" timeLoss="44.98" rerouteNo="1" devices="tripinfo_CalambatoBalibago.0 routing_CalambatoBalibago.0" vType="bus" speedFactor="1.00" vaporized=""/>
    <personinfo id="PalengketoSTI.0" depart="0.00" type="ped" speedFactor="1.19" duration="253.50" waitingTime="1.00" timeLoss="30.64" traveltime="253.50">
        <walk depart="0.00" departPos="25.00" arrival="253.50" arrivalPos="19.02" duration="253.50" routeLength="369.14" timeLoss="30.64" maxSpeed="1.66" waitingTime="1.00"/>
    </personinfo>
    <tripinfo id="NuvalitoCalamba.0" depart="45.30" departLane="-145507700#3_1" departPos="5.10" departPosLat="0.00" departSpeed="27.56" departDelay="0.00" arrival="253.50" arrivalLane="-185930141#0_1" arrivalPos="428.88" arrivalPosLat="-0.00" arrivalSpeed="27.52" duration="208.20" routeLength="2321.76" waitingTime="97.30" waitingCount="1" stopTime="0.00" timeLoss="122.80" rerouteNo="1" devices="tripinfo_NuvalitoCalamba.0 routing_NuvalitoCalamba.0" vType="car" speedFactor="0.99" vaporized=""/>
    <tripinfo id="BalibagotoCalamba.1" depart="80.90" departLane="145507698_1" departPos="2.30" departPosLat="0.00" departSpeed="9.75" departDelay="0.00" arrival="256.90" arrivalLane="-185930141#0_2" arrivalPos="428.88" arrivalPosLat="0.00" arrivalSpeed="27.24" duration="176.00" routeLength="1531.99" waitingTime="63.40" waitingCount="1" stopTime="0.00" timeLoss="89.47" rerouteNo="1" devices="tripinfo_BalibagotoCalamba.1 routing_BalibagotoCalamba.1" vType="tricycle" speedFactor="0.98" vaporized=""/>
    <tripinfo id="CalambatoBalibago.1" depart="194.30" departLane="185930141#0_2" departPos="8.10" departPosLat="0.00" departSpeed="27.78" departDelay="0.00" arrival="258.70" arrivalLane="89908334_1" arrivalPos="36.84" arrivalPosLat="0.00" arrivalSpeed="9.09" duration="64.40" routeLength="908.17" waitingTime="0.00" waitingCount="0" stopTime="0.00" timeLoss="23.12" rerouteNo="1" devices="tripinfo_CalambatoBalibago.1 routing_CalambatoBalibago.1" vType="jeep" speedFactor="1.00" vaporized=""/>
    <tripinfo id="CalambatoNuvali.0" depart="49.20" departLane="185930141#0_2" departPos="7.20" departPosLat="0.00" departSpeed="28.11" departDelay="0.00" arrival="261.60" arrivalLane="145507700#3_1" arrivalPos="783.31" arrivalPosLat="-0.00" arrivalSpeed="28.11" duration="212.40" routeLength="2330.77" waitingTime="94.30" waitingCount="1" stopTime="0.00" timeLoss="127.91" rerouteNo="1" devices="tripinfo_CalambatoNuvali.0 routing_CalambatoNuvali.0" vType="truck" speedFactor="1.01" vaporized=""/>
    <tripinfo id="BalibagotoCalamba.0" depart="41.40" departLane="145507698_1" departPos="7.55" departPosLat="0.00" departSpeed="0.00" departDelay="1.00" arrival="261.80" arrivalLane="-185930141#0_1" arrivalPos="428.88" arrivalPosLat="0.00" arrivalSpeed="27.76" duration="220.40" routeLength="1526.74" waitingTime="88.20" waitingCount="2" stopTime="0.00" timeLoss="135.75" rerouteNo="1" devices="tripinfo_BalibagotoCalamba.0 routing_BalibagotoCalamba.0" vType="bus" speedFactor="1.00" vaporized=""/>
    <personinfo id="JollibeetoPalengke.3" depart="146.00" type="ped" speedFactor="1.08" duration="117.00" waitingTime="0.00" timeLoss="12.41" traveltime="117.00">
        <walk depart="146.00" departPos="10.42" arrival="263.00" arrivalPos="27.04" duration="117.00" routeLength="157.27" timeLoss="12.41" maxSpeed="1.50" waitingTime="0.00"/>
    </personinfo>
    <tripinfo id="BalibagotoStaRosa.0" depart="58.50" departLane="145507698_1" departPos="2.30" departPosLat="0.00" departSpeed="1.00" departDelay="3.10" arrival="265.30" arrivalLane="-92878383#0_1" arrivalPos="603.68" arrivalPosLat="0.00" arrivalSpeed="8.65" duration="206.80" routeLength="1988.58" waitingTime="0.00" waitingCount="0" stopTime="0.00" timeLoss="26.02" rerouteNo="1" devices="tripinfo_BalibagotoStaRosa.0 routing_BalibagotoStaRosa.0" vType="tricycle" speedFactor="1.05" vaporized=""/>
    <tripinfo id="BiñantoCalamba.1" depart="178.20" departLane="553887793#0_1" departPos="5.10" departPosLat="0.00" departSpeed="24.89" departDelay="0.00" arrival="267.70" arrivalLane="-185930141#0_1" arrivalPos="428.88" arrivalPosLat="-0.00" arrivalSpeed="24.89" duration="89.50" routeLength="1507.67" waitingTime="9.90" waitingCount="1" stopTime="0.00" timeLoss="28.92" rerouteNo="1" devices="tripinfo_BiñantoCalamba.1 routing_BiñantoCalamba.1" vType="car" speedFactor="0.90" vaporized=""/>
    <tripinfo id="BiñantoCalamba.0" depart="21.20" departLane="553887793#0_1" departPos="7.20" departPosLat="0.00" departSpeed="29.17" departDelay="0.00" arrival="270.40" arrivalLane="-185930141#0_1" arrivalPos="428.88" arrivalPosLat="0.00" arrivalSpeed="29.12" duration="249.20" routeLength="1505.57" waitingTime="174.10" waitingCount="1" stopTime="0.00" timeLoss="197.57" rerouteNo="1" devices="tripinfo_BiñantoCalamba.0 routing_BiñantoCalamba.0" vType="truck" speedFactor="1.05" vaporized=""/>
    <tripinfo id="NuvalitoStaRosa.1" depart="76.20" departLane="-145507700#3_1" departPos="5.10" departPosLat="0.00" departSpeed="27.45" departDelay="0.00" arrival="276.00" arrivalLane="-92878383#0_1" arrivalPos="603.68" arrivalPosLat="-0.00" arrivalSpeed="8.14" duration="199.80" routeLength="2600.04" waitingTime="0.00" waitingCount="0" stopTime="0.00" timeLoss="12.98" rerouteNo="1" devices="tripinfo_NuvalitoStaRosa.1 routing_NuvalitoStaRosa.1" vType="car" speedFactor="0.99" vaporized=""/>
    <personinfo id="JollibeetoSTI.0" depart="0.00" type="ped" speedFactor="0.96" duration="281.50" waitingTime="0.70" timeLoss="28.95" traveltime="281.50">
        <walk depart="0.00" departPos="10.42" arrival="281.50" arrivalPos="19.02" duration="281.50" routeLength="335.01" timeLoss="28.95" maxSpeed="1.33" waitingTime="0.70"/>
    </personinfo>
    <personinfo id="PalengketoJollibee.3" depart="148.00" type="ped" speedFactor="0.98" duration="135.50" waitingTime="0.70" timeLoss="14.03" traveltime="135.50">
        <walk depart="148.00" departPos="25.00" arrival="283.50" arrivalPos="5.21" duration="135.50" routeLength="164.52" timeLoss="14.03" maxSpeed="1.35" waitingTime="0.70"/>
    </personinfo>
    <personinfo id="STItoSakayan.0" depart="0.00" type="ped" speedFactor="1.05" duration="285.00" waitingTime="1.80" timeLoss="30.19" traveltime="285.00">
        <walk depart="0.00" departPos="25.00" arrival="285.00" arrivalPos="27.04" duration="285.00" routeLength="373.08" timeLoss="30.19" maxSpeed="1.46" waitingTime="1.80"/>
    </personinfo>
    <tripinfo id="NuvalitoStaRosa.2" depart="111.10" departLane="-145507700#3_1" departPos="5.10" departPosLat="0.00" departSpeed="30.02" departDelay="0.00" arrival="296.00" arrivalLane="-92878383#0_1" arrivalPos="603.68" arrivalPosLat="-0.00" arrivalSpeed="8.93" duration="184.90" routeLength="2600.04" waitingTime="0.00" waitingCount="0" stopTime="0.00" timeLoss="14.00" rerouteNo="1" devices="tripinfo_NuvalitoStaRosa.2 routing_NuvalitoStaRosa.2" vType="car" speedFactor="1.08" vaporized=""/>
    <personinfo id="PalengketoJollibee.4" depart="197.30" type="ped" speedFactor="1.18" duration="111.80" waitingTime="0.30" timeLoss="11.38" traveltime="111.80">
        <walk depart="197.30" departPos="25.00" arrival="309.10" arrivalPos="5.21" duration="111.80" routeLength="164.52" timeLoss="11.38" maxSpeed="1.64" waitingTime="0.30"/>
    </personinfo>
    <personinfo id="JollibeetoPalengke.4" depart="194.60" type="ped" speedFactor="1.03" duration="122.70" waitingTime="0.50" timeLoss="12.79" traveltime="122.70">
        <walk depart="194.60" departPos="10.42" arrival="317.30" arrivalPos="27.04" duration="122.70" routeLength="157.27" timeLoss="12.79" maxSpeed="1.43" waitingTime="0.50"/>
    </personinfo>
    <personinfo id="JollibeetoSTI.1" depart="48.00" type="ped" speedFactor="0.98" duration="272.10" waitingTime="0.70" timeLoss="27.19" traveltime="272.10">
        <walk depart="48.00" departPos="10.42" arrival="320.10" arrivalPos="19.02" duration="272.10" routeLength="335.01" timeLoss="27.19" maxSpeed="1.37" waitingTime="0.70"/>
    </personinfo>
    <tripinfo id="BalibagotoBiñan.1" depart="185.50" departLane="145507698_1" departPos="7.55" departPosLat="0.00" departSpeed="0.00" departDelay="0.00" arrival="321.10" arrivalLane="-553887793#0_1" arrivalPos="201.31" arrivalPosLat="-0.00" arrivalSpeed="27.74" duration="135.60" routeLength="1682.41" waitingTime="2.70" waitingCount="1" stopTime="0.00" timeLoss="45.46" rerouteNo="1" devices="tripinfo_BalibagotoBiñan.1 routing_BalibagotoBiñan.1" vType="jeep" speedFactor="1.00" vaporized=""/>
    <tripinfo id="StaRosatoBiñan.0" depart="38.20" departLane="92878383#0_1" departPos="5.10" departPosLat="0.00" departSpeed="7.76" departDelay="0.00" arrival="348.80" arrivalLane="-553887793#0_1" arrivalPos="201.31" arrivalPosLat="-0.00" arrivalSpeed="25.77" duration="310.60" routeLength="1607.72" waitingTime="148.00" waitingCount="1" stopTime="0.00" timeLoss="159.55" rerouteNo="1" devices="tripinfo_StaRosatoBiñan.0 routing_StaRosatoBiñan.0" vType="car" speedFactor="0.93" vaporized=""/>
    <tripinfo id="StaRosatoBiñan.1" depart="116.60" departLane="92878383#0_1" departPos="5.10" departPosLat="0.00" departSpeed="5.26" departDelay="0.60" arrival="350.10" arrivalLane="-553887793#0_1" arrivalPos="201.31" arrivalPosLat="-0.00" arrivalSpeed="27.34" duration="233.50" routeLength="1607.72" waitingTime="77.10" waitingCount="1" stopTime="0.00" timeLoss="90.73" rerouteNo="1" devices="tripinfo_StaRosatoBiñan.1 routing_StaRosatoBiñan.1" vType="car" speedFactor="0.99" vaporized=""/>
    <personinfo id="JollibeetoSTI.2" depart="96.00" type="ped" speedFactor="1.03" duration="261.70" waitingTime="0.70" timeLoss="28.08" traveltime="261.70">
        <walk depart="96.00" departPos="10.42" arrival="357.70" arrivalPos="19.02" duration="261.70" routeLength="335.01" timeLoss="28.08" maxSpeed="1.43" waitingTime="0.70"/>
    </personinfo>
    <tripinfo id="BalibagotoNuvali.1" depart="289.70" departLane="777619905_1" departPos="2.30" departPosLat="0.00" departSpeed="5.50" departDelay="0.00" arrival="357.70" arrivalLane="145507700#3_1" arrivalPos="783.31" arrivalPosLat="-0.00" arrivalSpeed="25.58" duration="68.00" routeLength="1315.67" waitingTime="0.00" waitingCount="0" stopTime="0.00" timeLoss="10.07" rerouteNo="1" devices="tripinfo_BalibagotoNuvali.1 routing_BalibagotoNuvali.1" vType="tricycle" speedFactor="0.92" vaporized=""/>
    <personinfo id="STItoSakayan.1" depart="48.00" type="ped" speedFactor="0.98" duration="312.60" waitingTime="6.80" timeLoss="38.02" traveltime="312.60">
        <walk depart="48.00" departPos="25.00" arrival="360.60" arrivalPos="27.04" duration="312.60" routeLength="373.08" timeLoss="38.02" maxSpeed="1.36" waitingTime="6.80"/>
    </personinfo>
    <personinfo id="PalengketoSTI.1" depart="42.40" type="ped" speedFactor="0.93" duration="319.50" waitingTime="0.00" timeLoss="32.29" traveltime="319.50">
        <walk depart="42.40" departPos="25.00" arrival="361.90" arrivalPos="19.02" duration="319.50" routeLength="369.14" timeLoss="32.29" maxSpeed="1.29" waitingTime="0.00"/>
    </personinfo>
    <personinfo id="PalengketoSTI.2" depart="84.80" type="ped" speedFactor="1.07" duration="277.50" waitingTime="0.00" timeLoss="29.45" traveltime="277.50">
        <walk depart="84.80" departPos="25.00" arrival="362.30" arrivalPos="19.02" duration="277.50" routeLength="369.14" timeLoss="29.45" maxSpeed="1.49" waitingTime="0.00"/>
    </personinfo>
    <personinfo id="PalengketoJollibee.5" depart="246.60" type="ped" speedFactor="1.13" duration="117.00" waitingTime="0.00" timeLoss="12.56" traveltime="117.00">
        <walk depart="246.60" departPos="25.00" arrival="363.60" arrivalPos="5.21" duration="117.00" routeLength="164.52" timeLoss="12.56" maxSpeed="1.58" waitingTime="0.00"/>
    </personinfo>
    <tripinfo id="BiñantoStaRosa.0" depart="24.20" departLane="553887793#0_2" departPos="5.10" departPosLat="0.00" departSpeed="27.00" departDelay="0.00" arrival="363.80" arrivalLane="-92878383#0_1" arrivalPos="603.68" arrivalPosLat="-0.00" arrivalSpeed="8.00" duration="339.60" routeLength="1785.95" waitingTime="169.90" waitingCount="1" stopTime="0.00" timeLoss="180.94" rerouteNo="1" devices="tripinfo_BiñantoStaRosa.0 routing_BiñantoStaRosa.0" vType="car" speedFactor="0.97" vaporized=""/>
    <tripinfo id="CalambatoBalibago.2" depart="238.20" departLane="185930141#0_2" departPos="2.30" departPosLat="0.00" departSpeed="30.92" departDelay="0.00" arrival="387.70" arrivalLane="89908334_1" arrivalPos="36.84" arrivalPosLat="0.00" arrivalSpeed="11.19" duration="149.50" routeLength="913.97" waitingTime="92.40" waitingCount="1" stopTime="0.00" timeLoss="112.29" rerouteNo="1" devices="tripinfo_CalambatoBalibago.2 routing_CalambatoBalibago.2" vType="tricycle" speedFactor="1.11" vaporized=""/>
    <tripinfo id="CalambatoBalibago.3" depart="267.10" departLane="185930141#0_2" departPos="2.30" departPosLat="0.00" departSpeed="27.86" departDelay="0.00" arrival="391.10" arrivalLane="89908334_1" arrivalPos="36.84" arrivalPosLat="0.00" arrivalSpeed="11.06" duration="124.00" routeLength="913.97" waitingTime="57.90" waitingCount="1" stopTime="0.00" timeLoss="82.79" rerouteNo="1" devices="tripinfo_CalambatoBalibago.3 routing_CalambatoBalibago.3" vType="tricycle" speedFactor="1.00" vaporized=""/>
    <tripinfo id="StaRosatoBalibago.1" depart="76.60" departLane="92878383#0_1" departPos="2.30" departPosLat="0.00" departSpeed="10.11" departDelay="0.00" arrival="392.80" arrivalLane="-32083237#0_1" arrivalPos="36.46" arrivalPosLat="0.00" arrivalSpeed="15.27" duration="316.20" routeLength="1364.26" waitingTime="176.80" waitingCount="4" stopTime="0.00" timeLoss="205.76" rerouteNo="1" devices="tripinfo_StaRosatoBalibago.1 routing_StaRosatoBalibago.1" vType="tricycle" speedFactor="1.21" vaporized=""/>
    <personinfo id="PalengketoSTI.3" depart="127.10" type="ped" speedFactor="1.11" duration="266.30" waitingTime="0.00" timeLoss="26.73" traveltime="266.30">
        <walk depart="127.10" departPos="25.00" arrival="393.40" arrivalPos="19.02" duration="266.30" routeLength="369.14" timeLoss="26.73" maxSpeed="1.54" waitingTime="0.00"/>
    </personinfo>
    <personinfo id="JollibeetoPalengke.5" depart="243.30" type="ped" speedFactor="0.83" duration="151.40" waitingTime="0.00" timeLoss="15.13" traveltime="151.40">
        <walk depart="243.30" departPos="10.42" arrival="394.70" arrivalPos="27.04" duration="151.40" routeLength="157.27" timeLoss="15.13" maxSpeed="1.15" waitingTime="0.00"/>
    </personinfo>
    <tripinfo id="BiñantoStaRosa.1" depart="250.00" departLane="553887793#0_1" departPos="7.20" departPosLat="0.00" departSpeed="29.30" departDelay="0.00" arrival="399.50" arrivalLane="-92878383#0_1" arrivalPos="603.68" arrivalPosLat="-0.00" arrivalSpeed="8.74" duration="149.50" routeLength="1783.85" waitingTime="0.00" waitingCount="0" stopTime="0.00" timeLoss="3.38" rerouteNo="1" devices="tripinfo_BiñantoStaRosa.1 routing_BiñantoStaRosa.1" vType="truck" speedFactor="1.05" vaporized=""/>
    <tripinfo id="StaRosatoNuvali.0" depart="193.30" departLane="92878383#0_1" departPos="2.30" departPosLat="0.00" departSpeed="7.53" departDelay="0.00" arrival="402.00" arrivalLane="145507700#3_1" arrivalPos="783.31" arrivalPosLat="-0.00" arrivalSpeed="25.11" duration="208.70" routeLength="2448.66" waitingTime="1.40" waitingCount="1" stopTime="0.00" timeLoss="20.28" rerouteNo="1" devices="tripinfo_StaRosatoNuvali.0 routing_StaRosatoNuvali.0" vType="tricycle" speedFactor="0.90" vaporized=""/>
    <tripinfo id="NuvalitoBiñan.1" depart="271.60" departLane="-145507700#3_1" departPos="7.20" departPosLat="0.00" departSpeed="29.84" departDelay="0.00" arrival="402.30" arrivalLane="-553887793#0_2" arrivalPos="201.31" arrivalPosLat="0.00" arrivalSpeed="29.82" duration="130.70" routeLength="2091.29" waitingTime="31.90" waitingCount="1" stopTime="0.00" timeLoss="59.40" rerouteNo="1" devices="tripinfo_NuvalitoBiñan.1 routing_NuvalitoBiñan.1" vType="truck" speedFactor="1.07" vaporized=""/>
    <tripinfo id="NuvalitoBiñan.2" depart="309.60" departLane="-145507700#3_2" departPos="2.30" departPosLat="0.00" departSpeed="31.90" departDelay="0.00" arrival="403.60" arrivalLane="-553887793#0_2" arrivalPos="201.31" arrivalPosLat="0.00" arrivalSpeed="31.69" duration="94.00" routeLength="2096.19" waitingTime="0.00" waitingCount="0" stopTime="0.00" timeLoss="27.13" rerouteNo="1" devices="tripinfo_NuvalitoBiñan.2 routing_NuvalitoBiñan.2" vType="tricycle" speedFactor="1.15" vaporized=""/>
    <personinfo id="PalengketoJollibee.6" depart="295.90" type="ped" speedFactor="1.16" duration="114.40" waitingTime="0.00" timeLoss="11.98" traveltime="114.40">
        <walk depart="295.90" departPos="25.00" arrival="410.30" arrivalPos="5.21" duration="114.40" routeLength="164.52" timeLoss="11.98" maxSpeed="1.61" waitingTime="0.00"/>
    </personinfo>
    <tripinfo id="BalibagotoNuvali.2" depart="337.00" departLane="777619905_1" departPos="5.10" departPosLat="0.00" departSpeed="0.00" departDelay="0.00" arrival="413.60" arrivalLane="145507700#3_1" arrivalPos="783.31" arrivalPosLat="-0.00" arrivalSpeed="27.74" duration="76.60" routeLength="1312.87" waitingTime="0.00" waitingCount="0" stopTime="0.00" timeLoss="23.50" rerouteNo="1" devices="tripinfo_BalibagotoNuvali.2 routing_BalibagotoNuvali.2" vType="jeep" speedFactor="1.00" vaporized=""/>
    <tripinfo id="StaRosatoCalamba.0" depart="77.50" departLane="92878383#0_1" departPos="5.10" departPosLat="0.00" departSpeed="4.32" departDelay="0.00" arrival="415.70" arrivalLane="-185930141#0_1" arrivalPos="428.88" arrivalPosLat="-0.00" arrivalSpeed="24.45" duration="338.20" routeLength="1855.46" waitingTime="141.10" waitingCount="3" stopTime="0.00" timeLoss="168.83" rerouteNo="1" devices="tripinfo_StaRosatoCalamba.0 routing_StaRosatoCalamba.0" vType="car" speedFactor="0.88" vaporized=""/>
    <tripinfo id="StaRosatoCalamba.2" depart="94.70" departLane="92878383#0_1" departPos="2.30" departPosLat="0.00" departSpeed="4.28" departDelay="0.00" arrival="416.20" arrivalLane="-185930141#0_2" arrivalPos="428.88" arrivalPosLat="0.00" arrivalSpeed="29.39" duration="321.50" routeLength="1858.26" waitingTime="123.50" waitingCount="2" stopTime="0.00" timeLoss="180.06" rerouteNo="1" devices="tripinfo_StaRosatoCalamba.2 routing_StaRosatoCalamba.2" vType="tricycle" speedFactor="1.06" vaporized=""/>
    <personinfo id="JollibeetoPalengke.6" depart="291.90" type="ped" speedFactor="1.05" duration="124.70" waitingTime="0.50" timeLoss="16.42" traveltime="124.70">
        <walk depart="291.90" departPos="10.42" arrival="416.60" arrivalPos="27.04" duration="124.70" routeLength="157.27" timeLoss="16.42" maxSpeed="1.45" waitingTime="0.50"/>
    </personinfo>
    <personinfo id="STItoSakayan.2" depart="96.00" type="ped" speedFactor="0.93" duration="320.90" waitingTime="0.00" timeLoss="31.85" traveltime="320.90">
        <walk depart="96.00" departPos="25.00" arrival="416.90" arrivalPos="27.04" duration="320.90" routeLength="373.08" timeLoss="31.85" maxSpeed="1.29" waitingTime="0.00"/>
    </personinfo>
    <personinfo id="JollibeetoSTI.3" depart="144.00" type="ped" speedFactor="0.98" duration="274.80" waitingTime="1.20" timeLoss="29.14" traveltime="274.80">
        <walk depart="144.00" departPos="10.42" arrival="418.80" arrivalPos="19.02" duration="274.80" routeLength="335.01" timeLoss="29.14" maxSpeed="1.36" waitingTime="1.20"/>
    </personinfo>
    <tripinfo id="StaRosatoBalibago.0" depart="5.30" departLane="92878383#0_1" departPos="2.30" departPosLat="0.00" departSpeed="6.39" departDelay="0.00" arrival="419.00" arrivalLane="-32083237#0_1" arrivalPos="36.46" arrivalPosLat="0.00" arrivalSpeed="15.02" duration="413.70" routeLength="1364.26" waitingTime="205.30" waitingCount="6" stopTime="0.00" timeLoss="239.00" rerouteNo="1" devices="tripinfo_StaRosatoBalibago.0 routing_StaRosatoBalibago.0" vType="tricycle" speedFactor="0.77" vaporized=""/>
    <tripinfo id="StaRosatoNuvali.1" depart="235.40" departLane="92878383#0_1" departPos="7.20" departPosLat="0.00" departSpeed="8.42" departDelay="0.00" arrival="420.90" arrivalLane="145507700#3_1" arrivalPos="783.31" arrivalPosLat="0.00" arrivalSpeed="28.03" duration="185.50" routeLength="2443.76" waitingTime="0.00" waitingCount="0" stopTime="0.00" timeLoss="17.41" rerouteNo="1" devices="tripinfo_StaRosatoNuvali.1 routing_StaRosatoNuvali.1" vType="truck" speedFactor="1.01" vaporized=""/>
    <tripinfo id="StaRosatoCalamba.1" depart="93.90" departLane="92878383#0_1" departPos="12.10" departPosLat="0.00" departSpeed="8.33" departDelay="0.00" arrival="422.10" arrivalLane="-185930141#0_1" arrivalPos="428.88" arrivalPosLat="-0.00" arrivalSpeed="27.75" duration="328.20" routeLength="1848.46" waitingTime="131.60" waitingCount="2" stopTime="0.00" timeLoss="179.29" rerouteNo="1" devices="tripinfo_StaRosatoCalamba.1 routing_StaRosatoCalamba.1" vType="bus" speedFactor="1.00" vaporized=""/>
    <tripinfo id="BalibagotoCalamba.2" depart="277.20" departLane="145507698_1" departPos="7.55" departPosLat="0.00" departSpeed="0.00" departDelay="0.00" arrival="423.70" arrivalLane="-185930141#0_2" arrivalPos="428.88" arrivalPosLat="0.00" arrivalSpeed="27.75" duration="146.50" routeLength="1523.59" waitingTime="13.20" waitingCount="1" stopTime="0.00" timeLoss="62.28" rerouteNo="1" devices="tripinfo_BalibagotoCalamba.2 routing_BalibagotoCalamba.2" vType="jeep" speedFactor="1.00" vaporized=""/>
    <tripinfo id="NuvalitoCalamba.2" depart="127.60" departLane="-145507700#3_2" departPos="5.10" departPosLat="0.00" departSpeed="24.79" departDelay="0.00" arrival="424.40" arrivalLane="-185930141#0_1" arrivalPos="428.88" arrivalPosLat="-0.00" arrivalSpeed="24.70" duration="296.80" routeLength="2321.76" waitingTime="167.30" waitingCount="1" stopTime="0.00" timeLoss="201.84" rerouteNo="1" devices="tripinfo_NuvalitoCalamba.2 routing_NuvalitoCalamba.2" vType="car" speedFactor="0.89" vaporized=""/>
    <tripinfo id="NuvalitoCalamba.3" depart="205.50" departLane="-145507700#3_1" departPos="2.30" departPosLat="0.00" departSpeed="29.02" departDelay="0.00" arrival="425.60" arrivalLane="-185930141#0_1" arrivalPos="428.88" arrivalPosLat="-0.00" arrivalSpeed="28.86" duration="220.10" routeLength="2324.56" waitingTime="103.90" waitingCount="2" stopTime="0.00" timeLoss="138.84" rerouteNo="1" devices="tripinfo_NuvalitoCalamba.3 routing_NuvalitoCalamba.3" vType="motorcycle" speedFactor="1.04" vaporized=""/>
    <tripinfo id="StaRosatoCalamba.3" depart="216.90" departLane="92878383#0_1" departPos="5.10" departPosLat="0.00" departSpeed="7.66" departDelay="0.00" arrival="425.60" arrivalLane="-185930141#0_2" arrivalPos="428.88" arrivalPosLat="0.00" arrivalSpeed="25.42" duration="208.70" routeLength="1855.46" waitingTime="16.90" waitingCount="2" stopTime="0.00" timeLoss="45.90" rerouteNo="1" devices="tripinfo_StaRosatoCalamba.3 routing_StaRosatoCalamba.3" vType="car" speedFactor="0.92" vaporized=""/>