<?xml version="1.0" encoding="UTF-8"?>

<!-- generated on 2026-02-25 22:01:53 by Eclipse SUMO GUI Version 1.24.0
<sumoConfiguration xmlns:xsi="http://www.w3.org/2001/XMLSchema-instance" xsi:noNamespaceSchemaLocation="http://sumo.dlr.de/xsd/sumoConfiguration.xsd">

    <input>
        <net-file value="Balibago_traci/network/balibago_signalized.net.xml"/>
        <route-files value="Balibago_traci/demand/flows_slow_traffic.rou.xml"/>
        <additional-files value="Balibago_traci/additionals/balibago.poly.xml,Balibago_traci/ additionals/balibago.add.xml"/>
    </input>

    <output>
        <tripinfo-output value="Balibago_traci/output_DDPG/1_trips.xml"/>
        <statistic-output value="Balibago_traci/output_DDPG/1_stats.xml"/>
    </output>

    <time>
        <begin value="0"/>
        <end value="10800"/>
        <step-length value="0.1"/>
    </time>

    <processing>
        <lateral-resolution value="0.1"/>
        <collision.action value="none"/>
        <collision.check-junctions value="false"/>
        <collision.mingap-factor value="0"/>
    </processing>

    <report>
        <no-warnings value="true"/>
    </report>

    <traci_server>
        <remote-port value="8814"/>
    </traci_server>

    <gui_only>
        <delay value="0"/>
    </gui_only>

</sumoConfiguration>
-->

<tripinfos xmlns:xsi="http://www.w3.org/2001/XMLSchema-instance" xsi:noNamespaceSchemaLocation="http://sumo.dlr.de/xsd/tripinfo_file.xsd">
    <tripinfo id="BalibagotoNuvali.0" depart="9.20" departLane="777619905_1" departPos="2.30" departPosLat="0.00" departSpeed="5.50" departDelay="0.00" arrival="75.80" arrivalLane="145507700#3_1" arrivalPos="783.31" arrivalPosLat="-0.00" arrivalSpeed="26.09" duration="66.60" routeLength="1315.67" waitingTime="0.00" waitingCount="0" stopTime="0.00" timeLoss="9.97" rerouteNo="1" devices="tripinfo_BalibagotoNuvali.0 routing_BalibagotoNuvali.0" vType="tricycle" speedFactor="0.94" vaporized=""/>
    <personinfo id="JollibeetoPalengke.0" depart="0.00" type="ped" speedFactor="1.06" duration="125.10" waitingTime="6.30" timeLoss="18.27" traveltime="125.10">
        <walk depart="0.00" departPos="10.42" arrival="125.10" arrivalPos="27.04" duration="125.10" routeLength="157.27" timeLoss="18.27" maxSpeed="1.47" waitingTime="6.30"/>
    </personinfo>
    <personinfo id="PalengketoJollibee.0" depart="0.00" type="ped" speedFactor="0.95" duration="138.10" waitingTime="0.00" timeLoss="13.55" traveltime="138.10">
        <walk depart="0.00" departPos="25.00" arrival="138.10" arrivalPos="5.21" duration="138.10" routeLength="164.52" timeLoss="13.55" maxSpeed="1.32" waitingTime="0.00"/>
    </personinfo>
    <tripinfo id="BiñantoBalibago.0" depart="90.20" departLane="553887793#0_1" departPos="12.10" departPosLat="0.00" departSpeed="27.78" departDelay="0.00" arrival="152.70" arrivalLane="-32083237#0_1" arrivalPos="36.46" arrivalPosLat="0.00" arrivalSpeed="11.32" duration="62.50" routeLength="992.33" waitingTime="0.00" waitingCount="0" stopTime="0.00" timeLoss="23.09" rerouteNo="1" devices="tripinfo_BiñantoBalibago.0 routing_BiñantoBalibago.0" vType="bus" speedFactor="1.00" vaporized=""/>
    <tripinfo id="NuvalitoCalamba.0" depart="45.30" departLane="-145507700#3_1" departPos="7.20" departPosLat="0.00" departSpeed="28.04" departDelay="0.00" arrival="173.80" arrivalLane="-185930141#0_1" arrivalPos="428.88" arrivalPosLat="-0.00" arrivalSpeed="28.01" duration="128.50" routeLength="2319.66" waitingTime="3.40" waitingCount="1" stopTime="0.00" timeLoss="44.53" rerouteNo="1" devices="tripinfo_NuvalitoCalamba.0 routing_NuvalitoCalamba.0" vType="truck" speedFactor="1.01" vaporized=""/>
    <tripinfo id="BalibagotoBiñan.0" depart="37.20" departLane="145507698_1" departPos="2.30" departPosLat="0.00" departSpeed="9.75" departDelay="0.00" arrival="176.70" arrivalLane="-553887793#0_1" arrivalPos="201.31" arrivalPosLat="0.00" arrivalSpeed="29.75" duration="139.50" routeLength="1690.81" waitingTime="25.80" waitingCount="1" stopTime="0.00" timeLoss="54.98" rerouteNo="1" devices="tripinfo_BalibagotoBiñan.0 routing_BalibagotoBiñan.0" vType="tricycle" speedFactor="1.07" vaporized=""/>
    <personinfo id="PalengketoJollibee.1" depart="60.00" type="ped" speedFactor="1.01" duration="130.00" waitingTime="0.00" timeLoss="13.05" traveltime="130.00">
        <walk depart="60.00" departPos="25.00" arrival="190.00" arrivalPos="5.21" duration="130.00" routeLength="164.52" timeLoss="13.05" maxSpeed="1.41" waitingTime="0.00"/>
    </personinfo>
    <personinfo id="JollibeetoPalengke.1" depart="60.00" type="ped" speedFactor="0.94" duration="133.90" waitingTime="0.00" timeLoss="13.22" traveltime="133.90">
        <walk depart="60.00" departPos="10.42" arrival="193.90" arrivalPos="27.04" duration="133.90" routeLength="157.27" timeLoss="13.22" maxSpeed="1.30" waitingTime="0.00"/>
    </personinfo>
    <tripinfo id="BalibagotoCalamba.0" depart="80.90" departLane="145507698_1" departPos="7.55" departPosLat="0.00" departSpeed="0.00" departDelay="0.00" arrival="198.10" arrivalLane="-185930141#0_2" arrivalPos="428.88" arrivalPosLat="0.00" arrivalSpeed="27.75" duration="117.20" routeLength="1523.59" waitingTime="0.00" waitingCount="0" stopTime="0.00" timeLoss="33.01" rerouteNo="1" devices="tripinfo_BalibagotoCalamba.0 routing_BalibagotoCalamba.0" vType="jeep" speedFactor="1.00" vaporized=""/>
    <tripinfo id="CalambatoNuvali.0" depart="49.20" departLane="185930141#0_2" departPos="5.10" departPosLat="0.00" departSpeed="32.61" departDelay="0.00" arrival="206.70" arrivalLane="145507700#3_1" arrivalPos="783.31" arrivalPosLat="-0.00" arrivalSpeed="32.58" duration="157.50" routeLength="2332.87" waitingTime="60.20" waitingCount="1" stopTime="0.00" timeLoss="84.60" rerouteNo="1" devices="tripinfo_CalambatoNuvali.0 routing_CalambatoNuvali.0" vType="car" speedFactor="1.17" vaporized=""/>
    <personinfo id="JollibeetoPalengke.2" depart="120.00" type="ped" speedFactor="1.01" duration="124.40" waitingTime="0.00" timeLoss="12.33" traveltime="124.40">
        <walk depart="120.00" departPos="10.42" arrival="244.40" arrivalPos="27.04" duration="124.40" routeLength="157.27" timeLoss="12.33" maxSpeed="1.40" waitingTime="0.00"/>
    </personinfo>
    <personinfo id="JollibeetoSTI.0" depart="0.00" type="ped" speedFactor="1.08" duration="249.30" waitingTime="0.80" timeLoss="26.47" traveltime="249.30">
        <walk depart="0.00" departPos="10.42" arrival="249.30" arrivalPos="19.02" duration="249.30" routeLength="335.01" timeLoss="26.47" maxSpeed="1.50" waitingTime="0.80"/>
    </personinfo>
    <tripinfo id="StaRosatoBiñan.0" depart="38.20" departLane="92878383#0_1" departPos="2.30" departPosLat="0.00" departSpeed="8.55" departDelay="0.00" arrival="251.90" arrivalLane="-553887793#0_1" arrivalPos="201.31" arrivalPosLat="-0.00" arrivalSpeed="28.29" duration="213.70" routeLength="1610.52" waitingTime="71.30" waitingCount="1" stopTime="0.00" timeLoss="76.41" rerouteNo="1" devices="tripinfo_StaRosatoBiñan.0 routing_StaRosatoBiñan.0" vType="motorcycle" speedFactor="1.03" vaporized=""/>
    <tripinfo id="BiñantoCalamba.0" depart="178.20" departLane="553887793#0_1" departPos="2.30" departPosLat="0.00" departSpeed="28.88" departDelay="0.00" arrival="252.80" arrivalLane="-185930141#0_1" arrivalPos="428.88" arrivalPosLat="0.00" arrivalSpeed="28.62" duration="74.60" routeLength="1510.47" waitingTime="15.40" waitingCount="1" stopTime="0.00" timeLoss="22.26" rerouteNo="1" devices="tripinfo_BiñantoCalamba.0 routing_BiñantoCalamba.0" vType="motorcycle" speedFactor="1.04" vaporized=""/>
    <personinfo id="PalengketoJollibee.2" depart="120.00" type="ped" speedFactor="0.97" duration="135.70" waitingTime="0.00" timeLoss="13.57" traveltime="135.70">
        <walk depart="120.00" departPos="25.00" arrival="255.70" arrivalPos="5.21" duration="135.70" routeLength="164.52" timeLoss="13.57" maxSpeed="1.35" waitingTime="0.00"/>
    </personinfo>
    <tripinfo id="CalambatoBalibago.0" depart="150.70" departLane="185930141#0_2" departPos="8.10" departPosLat="0.00" departSpeed="27.78" departDelay="0.00" arrival="265.70" arrivalLane="89908334_1" arrivalPos="36.84" arrivalPosLat="0.00" arrivalSpeed="8.84" duration="115.00" routeLength="908.17" waitingTime="44.70" waitingCount="1" stopTime="0.00" timeLoss="73.76" rerouteNo="1" devices="tripinfo_CalambatoBalibago.0 routing_CalambatoBalibago.0" vType="jeep" speedFactor="1.00" vaporized=""/>
    <tripinfo id="BalibagotoStaRosa.0" depart="55.40" departLane="145507698_1" departPos="7.55" departPosLat="0.00" departSpeed="0.00" departDelay="0.00" arrival="273.60" arrivalLane="-92878383#0_1" arrivalPos="603.68" arrivalPosLat="0.00" arrivalSpeed="8.29" duration="218.20" routeLength="1986.48" waitingTime="0.00" waitingCount="0" stopTime="0.00" timeLoss="29.01" rerouteNo="1" devices="tripinfo_BalibagotoStaRosa.0 routing_BalibagotoStaRosa.0" vType="bus" speedFactor="1.00" vaporized=""/>
    <personinfo id="PalengketoSTI.0" depart="0.00" type="ped" speedFactor="1.07" duration="278.40" waitingTime="0.90" timeLoss="30.05" traveltime="278.40">
        <walk depart="0.00" departPos="25.00" arrival="278.40" arrivalPos="19.02" duration="278.40" routeLength="369.14" timeLoss="30.05" maxSpeed="1.49" waitingTime="0.90"/>
    </personinfo>
    <tripinfo id="StaRosatoCalamba.0" depart="77.50" departLane="92878383#0_1" departPos="8.10" departPosLat="0.00" departSpeed="8.33" departDelay="0.00" arrival="278.80" arrivalLane="-185930141#0_1" arrivalPos="428.88" arrivalPosLat="-0.00" arrivalSpeed="27.76" duration="201.30" routeLength="1852.46" waitingTime="28.40" waitingCount="1" stopTime="0.00" timeLoss="51.92" rerouteNo="1" devices="tripinfo_StaRosatoCalamba.0 routing_StaRosatoCalamba.0" vType="jeep" speedFactor="1.00" vaporized=""/>
    <tripinfo id="StaRosatoCalamba.1" depart="93.90" departLane="92878383#0_1" departPos="5.10" departPosLat="0.00" departSpeed="8.52" departDelay="0.00" arrival="279.90" arrivalLane="-185930141#0_2" arrivalPos="428.88" arrivalPosLat="0.00" arrivalSpeed="28.39" duration="186.00" routeLength="1855.46" waitingTime="15.50" waitingCount="1" stopTime="0.00" timeLoss="39.57" rerouteNo="1" devices="tripinfo_StaRosatoCalamba.1 routing_StaRosatoCalamba.1" vType="car" speedFactor="1.02" vaporized=""/>
    <tripinfo id="StaRosatoCalamba.2" depart="94.80" departLane="92878383#0_1" departPos="5.10" departPosLat="0.00" departSpeed="4.99" departDelay="0.10" arrival="280.90" arrivalLane="-185930141#0_1" arrivalPos="428.88" arrivalPosLat="-0.00" arrivalSpeed="24.67" duration="186.10" routeLength="1855.46" waitingTime="0.00" waitingCount="0" stopTime="0.00" timeLoss="18.30" rerouteNo="1" devices="tripinfo_StaRosatoCalamba.2 routing_StaRosatoCalamba.2" vType="car" speedFactor="0.89" vaporized=""/>
    <tripinfo id="StaRosatoBalibago.0" depart="5.30" departLane="92878383#0_1" departPos="2.30" departPosLat="0.00" departSpeed="9.27" departDelay="0.00" arrival="283.50" arrivalLane="-32083237#0_1" arrivalPos="36.46" arrivalPosLat="0.00" arrivalSpeed="15.40" duration="278.20" routeLength="1364.26" waitingTime="132.30" waitingCount="4" stopTime="0.00" timeLoss="157.66" rerouteNo="1" devices="tripinfo_StaRosatoBalibago.0 routing_StaRosatoBalibago.0" vType="tricycle" speedFactor="1.11" vaporized=""/>
    <personinfo id="STItoSakayan.0" depart="0.00" type="ped" speedFactor="1.03" duration="290.80" waitingTime="1.00" timeLoss="29.60" traveltime="290.80">
        <walk depart="0.00" departPos="25.00" arrival="290.80" arrivalPos="27.04" duration="290.80" routeLength="373.08" timeLoss="29.60" maxSpeed="1.43" waitingTime="1.00"/>
    </personinfo>
    <personinfo id="JollibeetoPalengke.3" depart="180.00" type="ped" speedFactor="1.08" duration="116.00" waitingTime="0.00" timeLoss="11.41" traveltime="116.00">
        <walk depart="180.00" departPos="10.42" arrival="296.00" arrivalPos="27.04" duration="116.00" routeLength="157.27" timeLoss="11.41" maxSpeed="1.50" waitingTime="0.00"/>
    </personinfo>
    <personinfo id="JollibeetoSTI.1" depart="60.00" type="ped" speedFactor="1.12" duration="245.70" waitingTime="3.40" timeLoss="30.20" traveltime="245.70">
        <walk depart="60.00" departPos="10.42" arrival="305.70" arrivalPos="19.02" duration="245.70" routeLength="335.01" timeLoss="30.20" maxSpeed="1.55" waitingTime="3.40"/>
    </personinfo>
    <tripinfo id="BiñantoStaRosa.0" depart="24.20" departLane="553887793#0_1" departPos="2.30" departPosLat="0.00" departSpeed="25.64" departDelay="0.00" arrival="306.40" arrivalLane="-92878383#0_1" arrivalPos="603.68" arrivalPosLat="-0.00" arrivalSpeed="7.61" duration="282.20" routeLength="1788.75" waitingTime="105.60" waitingCount="1" stopTime="0.00" timeLoss="115.03" rerouteNo="1" devices="tripinfo_BiñantoStaRosa.0 routing_BiñantoStaRosa.0" vType="tricycle" speedFactor="0.92" vaporized=""/>
    <personinfo id="PalengketoJollibee.3" depart="180.00" type="ped" speedFactor="0.99" duration="132.70" waitingTime="0.00" timeLoss="13.01" traveltime="132.70">
        <walk depart="180.00" departPos="25.00" arrival="312.70" arrivalPos="5.21" duration="132.70" routeLength="164.52" timeLoss="13.01" maxSpeed="1.37" waitingTime="0.00"/>
    </personinfo>
    <personinfo id="STItoSakayan.1" depart="60.00" type="ped" speedFactor="1.04" duration="286.00" waitingTime="0.10" timeLoss="28.65" traveltime="286.00">
        <walk depart="60.00" departPos="25.00" arrival="346.00" arrivalPos="27.04" duration="286.00" routeLength="373.08" timeLoss="28.65" maxSpeed="1.45" waitingTime="0.10"/>
    </personinfo>
    <tripinfo id="NuvalitoBiñan.0" depart="271.60" departLane="-145507700#3_1" departPos="2.30" departPosLat="0.00" departSpeed="29.49" departDelay="0.00" arrival="348.30" arrivalLane="-553887793#0_2" arrivalPos="201.31" arrivalPosLat="0.00" arrivalSpeed="29.40" duration="76.70" routeLength="2096.19" waitingTime="0.00" waitingCount="0" stopTime="0.00" timeLoss="4.40" rerouteNo="1" devices="tripinfo_NuvalitoBiñan.0 routing_NuvalitoBiñan.0" vType="motorcycle" speedFactor="1.06" vaporized=""/>
    <tripinfo id="CalambatoBalibago.1" depart="194.30" departLane="185930141#0_2" departPos="8.10" departPosLat="0.00" departSpeed="27.78" departDelay="0.00" arrival="355.50" arrivalLane="89908334_1" arrivalPos="36.84" arrivalPosLat="0.00" arrivalSpeed="9.02" duration="161.20" routeLength="908.17" waitingTime="83.80" waitingCount="1" stopTime="0.00" timeLoss="119.97" rerouteNo="1" devices="tripinfo_CalambatoBalibago.1 routing_CalambatoBalibago.1" vType="jeep" speedFactor="1.00" vaporized=""/>
    <tripinfo id="NuvalitoCalamba.1" depart="121.00" departLane="-145507700#3_1" departPos="8.10" departPosLat="0.00" departSpeed="27.78" departDelay="0.00" arrival="355.60" arrivalLane="-185930141#0_2" arrivalPos="428.88" arrivalPosLat="0.00" arrivalSpeed="27.76" duration="234.60" routeLength="2318.76" waitingTime="96.60" waitingCount="2" stopTime="0.00" timeLoss="149.89" rerouteNo="1" devices="tripinfo_NuvalitoCalamba.1 routing_NuvalitoCalamba.1" vType="jeep" speedFactor="1.00" vaporized=""/>
    <tripinfo id="NuvalitoCalamba.2" depart="205.50" departLane="-145507700#3_1" departPos="12.10" departPosLat="0.00" departSpeed="27.78" departDelay="0.00" arrival="355.70" arrivalLane="-185930141#0_1" arrivalPos="428.88" arrivalPosLat="-0.00" arrivalSpeed="27.77" duration="150.20" routeLength="2314.76" waitingTime="11.20" waitingCount="2" stopTime="0.00" timeLoss="65.65" rerouteNo="1" devices="tripinfo_NuvalitoCalamba.2 routing_NuvalitoCalamba.2" vType="bus" speedFactor="1.00" vaporized=""/>
    <tripinfo id="CalambatoBalibago.2" depart="238.20" departLane="185930141#0_2" departPos="8.10" departPosLat="0.00" departSpeed="27.78" departDelay="0.00" arrival="359.70" arrivalLane="89908334_1" arrivalPos="36.84" arrivalPosLat="0.00" arrivalSpeed="9.00" duration="121.50" routeLength="908.17" waitingTime="43.50" waitingCount="1" stopTime="0.00" timeLoss="80.27" rerouteNo="1" devices="tripinfo_CalambatoBalibago.2 routing_CalambatoBalibago.2" vType="jeep" speedFactor="1.00" vaporized=""/>
    <personinfo id="JollibeetoPalengke.4" depart="240.00" type="ped" speedFactor="1.03" duration="122.30" waitingTime="0.20" timeLoss="12.39" traveltime="122.30">
        <walk depart="240.00" departPos="10.42" arrival="362.30" arrivalPos="27.04" duration="122.30" routeLength="157.27" timeLoss="12.39" maxSpeed="1.43" waitingTime="0.20"/>
    </personinfo>
    <personinfo id="PalengketoJollibee.4" depart="240.00" type="ped" speedFactor="1.02" duration="128.10" waitingTime="0.00" timeLoss="12.42" traveltime="128.10">
        <walk depart="240.00" departPos="25.00" arrival="368.10" arrivalPos="5.21" duration="128.10" routeLength="164.52" timeLoss="12.42" maxSpeed="1.42" waitingTime="0.00"/>
    </personinfo>
    <personinfo id="PalengketoSTI.1" depart="60.00" type="ped" speedFactor="0.94" duration="315.60" waitingTime="0.60" timeLoss="32.01" traveltime="315.60">
        <walk depart="60.00" departPos="25.00" arrival="375.60" arrivalPos="19.02" duration="315.60" routeLength="369.14" timeLoss="32.01" maxSpeed="1.30" waitingTime="0.60"/>
    </personinfo>
    <tripinfo id="NuvalitoStaRosa.0" depart="111.10" departLane="-145507700#3_1" departPos="2.30" departPosLat="0.00" departSpeed="31.39" departDelay="0.00" arrival="380.00" arrivalLane="-92878383#0_1" arrivalPos="603.68" arrivalPosLat="-0.00" arrivalSpeed="9.32" duration="268.90" routeLength="2602.84" waitingTime="91.40" waitingCount="1" stopTime="0.00" timeLoss="105.42" rerouteNo="1" devices="tripinfo_NuvalitoStaRosa.0 routing_NuvalitoStaRosa.0" vType="tricycle" speedFactor="1.13" vaporized=""/>
    <personinfo id="JollibeetoSTI.2" depart="120.00" type="ped" speedFactor="1.02" duration="267.10" waitingTime="2.70" timeLoss="29.64" traveltime="267.10">
        <walk depart="120.00" departPos="10.42" arrival="387.10" arrivalPos="19.02" duration="267.10" routeLength="335.01" timeLoss="29.64" maxSpeed="1.41" waitingTime="2.70"/>
    </personinfo>
    <personinfo id="PalengketoTarget.0" depart="0.00" type="ped" speedFactor="1.19" duration="398.80" waitingTime="1.20" timeLoss="41.49" traveltime="398.80">
        <walk depart="0.00" departPos="25.00" arrival="398.80" arrivalPos="16.04" duration="398.80" routeLength="589.17" timeLoss="41.49" maxSpeed="1.65" waitingTime="1.20"/>
    </personinfo>
    <personinfo id="STItoSakayan.2" depart="120.00" type="ped" speedFactor="1.08" duration="278.90" waitingTime="2.20" timeLoss="30.20" traveltime="278.90">
        <walk depart="120.00" departPos="25.00" arrival="398.90" arrivalPos="27.04" duration="278.90" routeLength="373.08" timeLoss="30.20" maxSpeed="1.50" waitingTime="2.20"/>
    </personinfo>
    <tripinfo id="BiñantoBalibago.1" depart="333.00" departLane="553887793#0_1" departPos="8.10" departPosLat="0.00" departSpeed="27.78" departDelay="0.00" arrival="401.20" arrivalLane="-32083237#0_1" arrivalPos="36.46" arrivalPosLat="0.00" arrivalSpeed="11.59" duration="68.20" routeLength="996.33" waitingTime="0.40" waitingCount="1" stopTime="0.00" timeLoss="28.63" rerouteNo="1" devices="tripinfo_BiñantoBalibago.1 routing_BiñantoBalibago.1" vType="jeep" speedFactor="1.00" vaporized=""/>
    <tripinfo id="BiñantoNuvali.0" depart="318.30" departLane="553887793#0_1" departPos="5.10" departPosLat="0.00" departSpeed="29.34" departDelay="0.00" arrival="406.70" arrivalLane="145507700#3_1" arrivalPos="783.31" arrivalPosLat="-0.00" arrivalSpeed="29.22" duration="88.40" routeLength="2083.73" waitingTime="0.00" waitingCount="0" stopTime="0.00" timeLoss="16.30" rerouteNo="1" devices="tripinfo_BiñantoNuvali.0 routing_BiñantoNuvali.0" vType="car" speedFactor="1.06" vaporized=""/>
    <personinfo id="TargettoSakayan.0" depart="0.00" type="ped" speedFactor="1.17" duration="407.50" waitingTime="0.00" timeLoss="40.64" traveltime="407.50">
        <walk depart="0.00" departPos="25.00" arrival="407.50" arrivalPos="27.04" duration="407.50" routeLength="596.09" timeLoss="40.64" maxSpeed="1.62" waitingTime="0.00"/>
    </personinfo>
    <tripinfo id="CalambatoBiñan.0" depart="252.30" departLane="185930141#0_1" departPos="5.10" departPosLat="0.00" departSpeed="22.79" departDelay="0.00" arrival="414.20" arrivalLane="-553887793#0_1" arrivalPos="201.31" arrivalPosLat="0.00" arrivalSpeed="22.68" duration="161.90" routeLength="1507.67" waitingTime="71.40" waitingCount="3" stopTime="0.00" timeLoss="95.66" rerouteNo="1" devices="tripinfo_CalambatoBiñan.0 routing_CalambatoBiñan.0" vType="car" speedFactor="0.82" vaporized=""/>
    <tripinfo id="NuvalitoStaRosa.1" depart="128.70" departLane="-145507700#3_2" departPos="5.10" departPosLat="0.00" departSpeed="26.83" departDelay="0.00" arrival="417.70" arrivalLane="-92878383#0_1" arrivalPos="603.68" arrivalPosLat="-0.00" arrivalSpeed="8.01" duration="289.00" routeLength="2600.04" waitingTime="65.60" waitingCount="3" stopTime="0.00" timeLoss="97.73" rerouteNo="1" devices="tripinfo_NuvalitoStaRosa.1 routing_NuvalitoStaRosa.1" vType="car" speedFactor="0.97" vaporized=""/>
    <tripinfo id="BalibagotoBiñan.1" depart="185.50" departLane="145507698_1" departPos="7.55" departPosLat="0.00" departSpeed="0.00" departDelay="0.00" arrival="419.20" arrivalLane="-553887793#0_1" arrivalPos="201.31" arrivalPosLat="-0.00" arrivalSpeed="27.77" duration="233.70" routeLength="1682.41" waitingTime="90.70" waitingCount="1" stopTime="0.00" timeLoss="143.48" rerouteNo="1" devices="tripinfo_BalibagotoBiñan.1 routing_BalibagotoBiñan.1" vType="jeep" speedFactor="1.00" vaporized=""/>
    <tripinfo id="BalibagotoNuvali.1" depart="337.00" departLane="777619905_1" departPos="5.10" departPosLat="0.00" departSpeed="0.00" departDelay="0.00" arrival="423.80" arrivalLane="145507700#3_1" arrivalPos="783.31" arrivalPosLat="-0.00" arrivalSpeed="27.73" duration="86.80" routeLength="1312.87" waitingTime="3.00" waitingCount="1" stopTime="0.00" timeLoss="33.66" rerouteNo="1" devices="tripinfo_BalibagotoNuvali.1 routing_BalibagotoNuvali.1" vType="jeep" speedFactor="1.00" vaporized=""/>
    <personinfo id="PalengketoSTI.2" depart="120.00" type="ped" speedFactor="0.98" duration="304.60" waitingTime="2.10" timeLoss="33.59" traveltime="304.60">
        <walk depart="120.00" departPos="25.00" arrival="424.60" arrivalPos="19.02" duration="304.60" routeLength="369.14" timeLoss="33.59" maxSpeed="1.36" waitingTime="2.10"/>
    </personinfo>
    <personinfo id="PalengketoJollibee.5" depart="300.00" type="ped" speedFactor="1.01" duration="130.40" waitingTime="0.00" timeLoss="13.20" traveltime="130.40">
        <walk depart="300.00" departPos="25.00" arrival="430.40" arrivalPos="5.21" duration="130.40" routeLength="164.52" timeLoss="13.20" maxSpeed="1.40" waitingTime="0.00"/>
    </personinfo>
    <tripinfo id="BiñantoCalamba.2" depart="348.40" departLane="553887793#0_1" departPos="2.30" departPosLat="0.00" departSpeed="23.76" departDelay="0.00" arrival="431.60" arrivalLane="-185930141#0_1" arrivalPos="428.88" arrivalPosLat="-0.00" arrivalSpeed="23.52" duration="83.20" routeLength="1510.47" waitingTime="10.50" waitingCount="1" stopTime="0.00" timeLoss="19.57" rerouteNo="1" devices="tripinfo_BiñantoCalamba.2 routing_BiñantoCalamba.2" vType="motorcycle" speedFactor="0.86" vaporized=""/>
    <tripinfo id="BiñantoCalamba.1" depart="347.70" departLane="553887793#0_1" departPos="5.10" departPosLat="0.00" departSpeed="27.51" departDelay="0.00" arrival="434.20" arrivalLane="-185930141#0_1" arrivalPos="428.88" arrivalPosLat="0.00" arrivalSpeed="27.49" duration="86.50" routeLength="1507.67" waitingTime="16.30" waitingCount="1" stopTime="0.00" timeLoss="31.69" rerouteNo="1" devices="tripinfo_BiñantoCalamba.1 routing_BiñantoCalamba.1" vType="car" speedFactor="0.99" vaporized=""/>
    <tripinfo id="BalibagotoStaRosa.1" depart="214.70" departLane="145507698_1" departPos="7.55" departPosLat="0.00" departSpeed="0.00" departDelay="0.00" arrival="434.30" arrivalLane="-92878383#0_1" arrivalPos="603.68" arrivalPosLat="-0.00" arrivalSpeed="8.29" duration="219.60" routeLength="1983.33" waitingTime="0.00" waitingCount="0" stopTime="0.00" timeLoss="30.89" rerouteNo="1" devices="tripinfo_BalibagotoStaRosa.1 routing_BalibagotoStaRosa.1" vType="jeep" speedFactor="1.00" vaporized=""/>
    <tripinfo id="CalambatoBalibago.3" depart="267.10" departLane="185930141#0_2" departPos="8.10" departPosLat="0.00" departSpeed="27.78" departDelay="0.00" arrival="436.60" arrivalLane="89908334_1" arrivalPos="36.84" arrivalPosLat="0.00" arrivalSpeed="8.84" duration="169.50" routeLength="908.17" waitingTime="87.70" waitingCount="2" stopTime="0.00" timeLoss="128.22" rerouteNo="1" devices="tripinfo_CalambatoBalibago.3 routing_CalambatoBalibago.3" vType="jeep" speedFactor="1.00" vaporized=""/>
    <personinfo id="JollibeetoPalengke.5" depart="300.00" type="ped" speedFactor="0.83" duration="151.40" waitingTime="0.00" timeLoss="15.13" traveltime="151.40">
        <walk depart="300.00" departPos="10.42" arrival="451.40" arrivalPos="27.04" duration="151.40" routeLength="157.27" timeLoss="15.13" maxSpeed="1.15" waitingTime="0.00"/>
    </personinfo>
    <personinfo id="JollibeetoSTI.3" depart="180.00" type="ped" speedFactor="0.99" duration="272.00" waitingTime="0.90" timeLoss="27.61" traveltime="272.00">
        <walk depart="180.00" departPos="10.42" arrival="452.00" arrivalPos="19.02" duration="272.00" routeLength="335.01" timeLoss="27.61" maxSpeed="1.37" waitingTime="0.90"/>
    </personinfo>
    <personinfo id="JollibeetoTarget.1" depart="60.00" type="ped" speedFactor="1.10" duration="406.20" waitingTime="1.40" timeLoss="43.95" traveltime="406.20">
        <walk depart="60.00" departPos="10.42" arrival="466.20" arrivalPos="16.04" duration="406.20" routeLength="555.05" timeLoss="43.95" maxSpeed="1.53" waitingTime="1.40"/>
    </personinfo>
    <personinfo id="PalengketoSTI.3" depart="180.00" type="ped" speedFactor="1.04" duration="289.00" waitingTime="2.20" timeLoss="34.13" traveltime="289.00">
        <walk depart="180.00" departPos="25.00" arrival="469.00" arrivalPos="19.02" duration="289.00" routeLength="369.14" timeLoss="34.13" maxSpeed="1.45" waitingTime="2.20"/>
    </personinfo>
    <tripinfo id="CalambatoStaRosa.0" depart="289.50" departLane="185930141#0_1" departPos="7.20" departPosLat="0.00" departSpeed="28.24" departDelay="0.00" arrival="472.00" arrivalLane="-92878383#0_1" arrivalPos="603.68" arrivalPosLat="0.00" arrivalSpeed="8.43" duration="182.50" routeLength="1806.49" waitingTime="7.00" waitingCount="2" stopTime="0.00" timeLoss="32.14" rerouteNo="1" devices="tripinfo_CalambatoStaRosa.0 routing_CalambatoStaRosa.0" vType="truck" speedFactor="1.02" vaporized=""/>
    <personinfo id="JollibeetoTarget.0" depart="0.00" type="ped" speedFactor="0.94" duration="473.50" waitingTime="1.30" timeLoss="49.04" traveltime="473.50">
        <walk depart="0.00" departPos="10.42" arrival="473.50" arrivalPos="16.04" duration="473.50" routeLength="555.05" timeLoss="49.04" maxSpeed="1.31" waitingTime="1.30"/>
    </personinfo>
    <personinfo id="STItoSakayan.3" depart="180.00" type="ped" speedFactor="0.99" duration="300.30" waitingTime="0.10" timeLoss="29.76" traveltime="300.30">
        <walk depart="180.00" departPos="25.00" arrival="480.30" arrivalPos="27.04" duration="300.30" routeLength="373.08" timeLoss="29.76" maxSpeed="1.38" waitingTime="0.10"/>
    </personinfo>
    <personinfo id="JollibeetoPalengke.6" depart="360.00" type="ped" speedFactor="1.05" duration="120.70" waitingTime="0.00" timeLoss="12.42" traveltime="120.70">
        <walk depart="360.00" departPos="10.42" arrival="480.70" arrivalPos="27.04" duration="120.70" routeLength="157.27" timeLoss="12.42" maxSpeed="1.45" waitingTime="0.00"/>
    </personinfo>
    <personinfo id="TargettoSakayan.1" depart="60.00" type="ped" speedFactor="1.12" duration="427.40" waitingTime="1.40" timeLoss="44.40" traveltime="427.40">
        <walk depart="60.00" departPos="25.00" arrival="487.40" arrivalPos="27.04" duration="427.40" routeLength="596.09" timeLoss="44.40" maxSpeed="1.56" waitingTime="1.40"/>
    </personinfo>
    <personinfo id="PalengketoJollibee.6" depart="360.00" type="ped" speedFactor="0.97" duration="135.40" waitingTime="0.00" timeLoss="13.61" traveltime="135.40">
        <walk depart="360.00" departPos="25.00" arrival="495.40" arrivalPos="5.21" duration="135.40" routeLength="164.52" timeLoss="13.61" maxSpeed="1.35" waitingTime="0.00"/>
    </personinfo>
    <tripinfo id="BalibagotoStaRosa.2" depart="302.80" departLane="145507698_1" departPos="2.30" departPosLat="0.00" departSpeed="9.75" departDelay="0.00" arrival="505.00" arrivalLane="-92878383#0_1" arrivalPos="603.68" arrivalPosLat="0.00" arrivalSpeed="8.32" duration="202.20" routeLength="1991.73" waitingTime="0.00" waitingCount="0" stopTime="0.00" timeLoss="13.62" rerouteNo="1" devices="tripinfo_BalibagotoStaRosa.2 routing_BalibagotoStaRosa.2" vType="tricycle" speedFactor="1.00" vaporized=""/>
    <tripinfo id="StaRosatoBalibago.1" depart="141.60" departLane="92878383#0_1" departPos="8.10" departPosLat="0.00" departSpeed="8.33" departDelay="0.00" arrival="511.50" arrivalLane="-32083237#0_1" arrivalPos="36.46" arrivalPosLat="0.00" arrivalSpeed="11.33" duration="369.90" routeLength="1358.46" waitingTime="203.40" waitingCount="2" stopTime="0.00" timeLoss="236.52" rerouteNo="1" devices="tripinfo_StaRosatoBalibago.1 routing_StaRosatoBalibago.1" vType="jeep" speedFactor="1.00" vaporized=""/>
    <personinfo id="PalengketoTarget.2" depart="120.00" type="ped" speedFactor="1.20" duration="394.70" waitingTime="2.10" timeLoss="41.76" traveltime="394.70">
        <walk depart="120.00" departPos="25.00" arrival="514.70" arrivalPos="16.04" duration="394.70" routeLength="589.17" timeLoss="41.76" maxSpeed="1.67" waitingTime="2.10"/>
    </personinfo>