<?xml version="1.0" encoding="UTF-8"?>

<!-- generated on 2026-02-19 17:58:17 by Eclipse SUMO sumo Version 1.24.0
<sumoConfiguration xmlns:xsi="http://www.w3.org/2001/XMLSchema-instance" xsi:noNamespaceSchemaLocation="http://sumo.dlr.de/xsd/sumoConfiguration.xsd">

    <input>
        <net-file value="Balibago_traci/network/balibago_signalized.net.xml"/>
        <route-files value="Balibago_traci/demand/flows_slow_traffic.rou.xml"/>
        <additional-files value="Balibago_traci/additionals/balibago.poly.xml,Balibago_traci/ additionals/balibago.add.xml"/>
    </input>

    <output>
        <tripinfo-output value="Balibago_traci/output_DDPG/baseline_slow_trips.xml"/>
        <statistic-output value="Balibago_traci/output_DDPG/baseline_slow_stats.xml"/>
    </output>

    <time>
        <begin value="0"/>
        <end value="10800"/>
        <step-length value="0.1"/>
    </time>

    <processing>
        <collision.action value="none"/>
        <collision.check-junctions value="false"/>
        <collision.mingap-factor value="0"/>
    </processing>

    <report>
        <no-warnings value="true"/>
    </report>

    <traci_server>
        <remote-port value="56501"/>
    </traci_server>

    <gui_only>
        <delay value="0"/>
    </gui_only>

</sumoConfiguration>
-->

<tripinfos xmlns:xsi="http://www.w3.org/2001/XMLSchema-instance" xsi:noNamespaceSchemaLocation="http://sumo.dlr.de/xsd/tripinfo_file.xsd">
    <tripinfo id="BalibagotoNuvali.0" depart="9.20" departLane="777619905_1" departPos="2.30" departSpeed="5.50" departDelay="0.00" arrival="70.50" arrivalLane="145507700#3_2" arrivalPos="783.31" arrivalSpeed="29.91" duration="61.30" routeLength="1315.67" waitingTime="0.00" waitingCount="0" stopTime="0.00" timeLoss="11.79" rerouteNo="1" devices="tripinfo_BalibagotoNuvali.0 routing_BalibagotoNuvali.0" vType="tricycle" speedFactor="1.08" vaporized=""/>
    <tripinfo id="NuvalitoBiñan.0" depart="0.70" departLane="-145507700#3_1" departPos="5.10" departSpeed="25.17" departDelay="0.00" arrival="94.40" arrivalLane="-553887793#0_2" arrivalPos="201.31" arrivalSpeed="25.14" duration="93.70" routeLength="2093.39" waitingTime="0.00" waitingCount="0" stopTime="0.00" timeLoss="9.05" rerouteNo="1" devices="tripinfo_NuvalitoBiñan.0 routing_NuvalitoBiñan.0" vType="car" speedFactor="0.91" vaporized=""/>
    <tripinfo id="BiñantoBalibago.0" depart="5.20" departLane="553887793#0_1" departPos="12.10" departSpeed="27.78" departDelay="0.00" arrival="105.70" arrivalLane="-32083237#0_1" arrivalPos="36.46" arrivalSpeed="11.47" duration="100.50" routeLength="992.33" waitingTime="27.30" waitingCount="2" stopTime="0.00" timeLoss="61.07" rerouteNo="1" devices="tripinfo_BiñantoBalibago.0 routing_BiñantoBalibago.0" vType="bus" speedFactor="1.00" vaporized=""/>
    <personinfo id="JollibeetoPalengke.0" depart="0.00" type="ped" speedFactor="1.06" duration="118.30" waitingTime="0.00" timeLoss="11.47" traveltime="118.30">
        <walk depart="0.00" departPos="10.42" arrival="118.30" arrivalPos="27.04" duration="118.30" routeLength="157.27" timeLoss="11.47" maxSpeed="1.47" waitingTime="0.00"/>
    </personinfo>
    <tripinfo id="NuvalitoBiñan.1" depart="32.40" departLane="-145507700#3_2" departPos="8.10" departSpeed="27.78" departDelay="0.00" arrival="126.80" arrivalLane="-553887793#0_2" arrivalPos="201.31" arrivalSpeed="27.74" duration="94.40" routeLength="2090.39" waitingTime="0.00" waitingCount="0" stopTime="0.00" timeLoss="17.85" rerouteNo="1" devices="tripinfo_NuvalitoBiñan.1 routing_NuvalitoBiñan.1" vType="jeep" speedFactor="1.00" vaporized=""/>
    <tripinfo id="NuvalitoBalibago.0" depart="8.30" departLane="-145507700#3_1" departPos="8.10" departSpeed="27.78" departDelay="0.00" arrival="147.90" arrivalLane="32083201#1_1" arrivalPos="58.53" arrivalSpeed="13.89" duration="139.60" routeLength="2051.95" waitingTime="0.00" waitingCount="0" stopTime="0.00" timeLoss="33.90" rerouteNo="1" devices="tripinfo_NuvalitoBalibago.0 routing_NuvalitoBalibago.0" vType="jeep" speedFactor="1.00" vaporized=""/>
    <personinfo id="PalengketoJollibee.1" depart="22.50" type="ped" speedFactor="1.06" duration="125.70" waitingTime="0.10" timeLoss="13.59" traveltime="125.70">
        <walk depart="22.50" departPos="25.00" arrival="148.20" arrivalPos="5.21" duration="125.70" routeLength="164.52" timeLoss="13.59" maxSpeed="1.47" waitingTime="0.10"/>
    </personinfo>
    <personinfo id="PalengketoJollibee.0" depart="0.00" type="ped" speedFactor="0.93" duration="149.50" waitingTime="7.60" timeLoss="22.03" traveltime="149.50">
        <walk depart="0.00" departPos="25.00" arrival="149.50" arrivalPos="5.21" duration="149.50" routeLength="164.52" timeLoss="22.03" maxSpeed="1.29" waitingTime="7.60"/>
    </personinfo>
    <tripinfo id="BalibagotoNuvali.1" depart="30.10" departLane="777619905_1" departPos="5.10" departSpeed="0.00" departDelay="0.00" arrival="156.00" arrivalLane="145507700#3_1" arrivalPos="783.31" arrivalSpeed="27.74" duration="125.90" routeLength="1312.87" waitingTime="25.20" waitingCount="3" stopTime="0.00" timeLoss="72.81" rerouteNo="1" devices="tripinfo_BalibagotoNuvali.1 routing_BalibagotoNuvali.1" vType="jeep" speedFactor="1.00" vaporized=""/>
    <personinfo id="JollibeetoPalengke.1" depart="22.50" type="ped" speedFactor="0.94" duration="133.60" waitingTime="0.00" timeLoss="12.92" traveltime="133.60">
        <walk depart="22.50" departPos="10.42" arrival="156.10" arrivalPos="27.04" duration="133.60" routeLength="157.27" timeLoss="12.92" maxSpeed="1.30" waitingTime="0.00"/>
    </personinfo>
    <tripinfo id="NuvalitoBiñan.2" depart="67.30" departLane="-145507700#3_1" departPos="12.10" departSpeed="27.78" departDelay="0.00" arrival="161.40" arrivalLane="-553887793#0_2" arrivalPos="201.31" arrivalSpeed="27.77" duration="94.10" routeLength="2086.39" waitingTime="0.00" waitingCount="0" stopTime="0.00" timeLoss="17.63" rerouteNo="1" devices="tripinfo_NuvalitoBiñan.2 routing_NuvalitoBiñan.2" vType="bus" speedFactor="1.00" vaporized=""/>
    <personinfo id="PalengketoJollibee.2" depart="45.00" type="ped" speedFactor="1.10" duration="120.80" waitingTime="0.70" timeLoss="12.78" traveltime="120.80">
        <walk depart="45.00" departPos="25.00" arrival="165.80" arrivalPos="5.21" duration="120.80" routeLength="164.52" timeLoss="12.78" maxSpeed="1.52" waitingTime="0.70"/>
    </personinfo>
    <tripinfo id="BalibagotoNuvali.2" depart="81.90" departLane="777619905_1" departPos="5.10" departSpeed="0.00" departDelay="0.00" arrival="168.10" arrivalLane="145507700#3_1" arrivalPos="783.31" arrivalSpeed="27.76" duration="86.20" routeLength="1312.87" waitingTime="0.90" waitingCount="1" stopTime="0.00" timeLoss="33.10" rerouteNo="1" devices="tripinfo_BalibagotoNuvali.2 routing_BalibagotoNuvali.2" vType="jeep" speedFactor="1.00" vaporized=""/>
    <tripinfo id="NuvalitoBalibago.1" depart="28.30" departLane="-145507700#3_1" departPos="8.10" departSpeed="27.78" departDelay="0.00" arrival="168.30" arrivalLane="32083201#1_1" arrivalPos="58.53" arrivalSpeed="13.85" duration="140.00" routeLength="2051.95" waitingTime="0.00" waitingCount="0" stopTime="0.00" timeLoss="34.24" rerouteNo="1" devices="tripinfo_NuvalitoBalibago.1 routing_NuvalitoBalibago.1" vType="jeep" speedFactor="1.00" vaporized=""/>
    <personinfo id="JollibeetoPalengke.2" depart="45.00" type="ped" speedFactor="1.01" duration="125.10" waitingTime="0.60" timeLoss="13.03" traveltime="125.10">
        <walk depart="45.00" departPos="10.42" arrival="170.10" arrivalPos="27.04" duration="125.10" routeLength="157.27" timeLoss="13.03" maxSpeed="1.40" waitingTime="0.60"/>
    </personinfo>
    <personinfo id="JollibeetoPalengke.3" depart="67.50" type="ped" speedFactor="1.08" duration="115.90" waitingTime="0.00" timeLoss="11.31" traveltime="115.90">
        <walk depart="67.50" departPos="10.42" arrival="183.40" arrivalPos="27.04" duration="115.90" routeLength="157.27" timeLoss="11.31" maxSpeed="1.50" waitingTime="0.00"/>
    </personinfo>
    <tripinfo id="CalambatoStaRosa.0" depart="28.70" departLane="185930141#0_1" departPos="5.10" departSpeed="26.85" departDelay="0.00" arrival="191.60" arrivalLane="-92878383#0_1" arrivalPos="603.68" arrivalSpeed="8.05" duration="162.90" routeLength="1808.59" waitingTime="0.00" waitingCount="0" stopTime="0.00" timeLoss="4.76" rerouteNo="1" devices="tripinfo_CalambatoStaRosa.0 routing_CalambatoStaRosa.0" vType="car" speedFactor="0.97" vaporized=""/>
    <tripinfo id="NuvalitoBalibago.2" depart="68.00" departLane="-145507700#3_1" departPos="8.10" departSpeed="25.26" departDelay="0.00" arrival="208.30" arrivalLane="32083201#1_1" arrivalPos="58.53" arrivalSpeed="13.88" duration="140.30" routeLength="2051.95" waitingTime="0.00" waitingCount="0" stopTime="0.00" timeLoss="34.55" rerouteNo="1" devices="tripinfo_NuvalitoBalibago.2 routing_NuvalitoBalibago.2" vType="jeep" speedFactor="1.00" vaporized=""/>
    <personinfo id="JollibeetoPalengke.4" depart="90.00" type="ped" speedFactor="1.03" duration="122.20" waitingTime="0.00" timeLoss="12.29" traveltime="122.20">
        <walk depart="90.00" departPos="10.42" arrival="212.20" arrivalPos="27.04" duration="122.20" routeLength="157.27" timeLoss="12.29" maxSpeed="1.43" waitingTime="0.00"/>
    </personinfo>
    <tripinfo id="NuvalitoBalibago.3" depart="71.30" departLane="-145507700#3_1" departPos="8.10" departSpeed="27.78" departDelay="0.00" arrival="213.30" arrivalLane="32083201#1_1" arrivalPos="58.53" arrivalSpeed="13.84" duration="142.00" routeLength="2055.09" waitingTime="0.00" waitingCount="0" stopTime="0.00" timeLoss="36.07" rerouteNo="1" devices="tripinfo_NuvalitoBalibago.3 routing_NuvalitoBalibago.3" vType="jeep" speedFactor="1.00" vaporized=""/>
    <tripinfo id="CalambatoBiñan.0" depart="32.70" departLane="185930141#0_2" departPos="5.10" departSpeed="26.71" departDelay="0.00" arrival="216.40" arrivalLane="-553887793#0_1" arrivalPos="201.31" arrivalSpeed="26.69" duration="183.70" routeLength="1507.67" waitingTime="112.20" waitingCount="1" stopTime="0.00" timeLoss="127.21" rerouteNo="1" devices="tripinfo_CalambatoBiñan.0 routing_CalambatoBiñan.0" vType="car" speedFactor="0.96" vaporized=""/>
    <personinfo id="PalengketoJollibee.3" depart="67.50" type="ped" speedFactor="0.95" duration="151.80" waitingTime="13.60" timeLoss="27.66" traveltime="151.80">
        <walk depart="67.50" departPos="25.00" arrival="219.30" arrivalPos="5.21" duration="151.80" routeLength="164.52" timeLoss="27.66" maxSpeed="1.33" waitingTime="13.60"/>
    </personinfo>
    <tripinfo id="BalibagotoBiñan.0" depart="13.70" departLane="145507698_1" departPos="7.55" departSpeed="0.00" departDelay="0.00" arrival="224.30" arrivalLane="-553887793#0_1" arrivalPos="201.31" arrivalSpeed="27.76" duration="210.60" routeLength="1682.41" waitingTime="61.30" waitingCount="1" stopTime="0.00" timeLoss="120.55" rerouteNo="1" devices="tripinfo_BalibagotoBiñan.0 routing_BalibagotoBiñan.0" vType="jeep" speedFactor="1.00" vaporized=""/>
    <tripinfo id="BalibagotoBiñan.1" depart="37.20" departLane="145507698_1" departPos="7.55" departSpeed="0.00" departDelay="0.00" arrival="225.60" arrivalLane="-553887793#0_2" arrivalPos="201.31" arrivalSpeed="27.74" duration="188.40" routeLength="1685.56" waitingTime="42.60" waitingCount="1" stopTime="0.00" timeLoss="97.89" rerouteNo="1" devices="tripinfo_BalibagotoBiñan.1 routing_BalibagotoBiñan.1" vType="bus" speedFactor="1.00" vaporized=""/>
    <tripinfo id="BalibagotoBiñan.3" depart="90.30" departLane="145507698_1" departPos="2.30" departSpeed="0.61" departDelay="23.60" arrival="225.80" arrivalLane="-553887793#0_1" arrivalPos="201.31" arrivalSpeed="28.02" duration="135.50" routeLength="1690.81" waitingTime="1.20" waitingCount="1" stopTime="0.00" timeLoss="51.79" rerouteNo="1" devices="tripinfo_BalibagotoBiñan.3 routing_BalibagotoBiñan.3" vType="tricycle" speedFactor="1.08" vaporized=""/>
    <tripinfo id="BalibagotoBiñan.2" depart="86.60" departLane="145507698_1" departPos="7.55" departSpeed="0.00" departDelay="21.00" arrival="227.10" arrivalLane="-553887793#0_2" arrivalPos="201.31" arrivalSpeed="27.73" duration="140.50" routeLength="1682.41" waitingTime="0.40" waitingCount="1" stopTime="0.00" timeLoss="50.41" rerouteNo="1" devices="tripinfo_BalibagotoBiñan.2 routing_BalibagotoBiñan.2" vType="jeep" speedFactor="1.00" vaporized=""/>
    <tripinfo id="BalibagotoNuvali.3" depart="124.10" departLane="777619905_1" departPos="5.10" departSpeed="0.00" departDelay="0.00" arrival="230.40" arrivalLane="145507700#3_1" arrivalPos="783.31" arrivalSpeed="27.76" duration="106.30" routeLength="1312.87" waitingTime="11.50" waitingCount="2" stopTime="0.00" timeLoss="53.20" rerouteNo="1" devices="tripinfo_BalibagotoNuvali.3 routing_BalibagotoNuvali.3" vType="jeep" speedFactor="1.00" vaporized=""/>
    <tripinfo id="BalibagotoNuvali.6" depart="157.80" departLane="777619905_1" departPos="2.30" departSpeed="5.50" departDelay="0.00" arrival="232.40" arrivalLane="145507700#3_2" arrivalPos="783.31" arrivalSpeed="29.12" duration="74.60" routeLength="1315.67" waitingTime="0.00" waitingCount="0" stopTime="0.00" timeLoss="23.84" rerouteNo="1" devices="tripinfo_BalibagotoNuvali.6 routing_BalibagotoNuvali.6" vType="tricycle" speedFactor="1.05" vaporized=""/>
    <tripinfo id="NuvalitoBalibago.4" depart="85.20" departLane="-145507700#3_1" departPos="2.30" departSpeed="21.98" departDelay="0.00" arrival="234.40" arrivalLane="32083201#1_1" arrivalPos="58.53" arrivalSpeed="10.95" duration="149.20" routeLength="2064.04" waitingTime="0.00" waitingCount="0" stopTime="0.00" timeLoss="14.75" rerouteNo="1" devices="tripinfo_NuvalitoBalibago.4 routing_NuvalitoBalibago.4" vType="tricycle" speedFactor="0.79" vaporized=""/>
    <tripinfo id="BalibagotoNuvali.4" depart="138.80" departLane="777619905_1" departPos="2.30" departSpeed="5.50" departDelay="0.00" arrival="235.00" arrivalLane="145507700#3_1" arrivalPos="783.31" arrivalSpeed="24.42" duration="96.20" routeLength="1315.67" waitingTime="13.80" waitingCount="1" stopTime="0.00" timeLoss="35.74" rerouteNo="1" devices="tripinfo_BalibagotoNuvali.4 routing_BalibagotoNuvali.4" vType="tricycle" speedFactor="0.88" vaporized=""/>
    <tripinfo id="CalambatoBiñan.1" depart="169.10" departLane="185930141#0_1" departPos="2.30" departSpeed="25.52" departDelay="0.00" arrival="235.50" arrivalLane="-553887793#0_2" arrivalPos="201.31" arrivalSpeed="25.48" duration="66.40" routeLength="1510.47" waitingTime="0.00" waitingCount="0" stopTime="0.00" timeLoss="7.20" rerouteNo="1" devices="tripinfo_CalambatoBiñan.1 routing_CalambatoBiñan.1" vType="motorcycle" speedFactor="0.92" vaporized=""/>
    <tripinfo id="BalibagotoNuvali.5" depart="139.70" departLane="777619905_1" departPos="2.30" departSpeed="5.50" departDelay="0.40" arrival="237.20" arrivalLane="145507700#3_1" arrivalPos="783.31" arrivalSpeed="23.61" duration="97.50" routeLength="1315.67" waitingTime="10.10" waitingCount="1" stopTime="0.00" timeLoss="34.92" rerouteNo="1" devices="tripinfo_BalibagotoNuvali.5 routing_BalibagotoNuvali.5" vType="tricycle" speedFactor="0.85" vaporized=""/>
    <tripinfo id="CalambatoNuvali.0" depart="34.20" departLane="185930141#0_2" departPos="2.30" departSpeed="29.43" departDelay="0.00" arrival="241.40" arrivalLane="145507700#3_1" arrivalPos="783.31" arrivalSpeed="29.36" duration="207.20" routeLength="2335.67" waitingTime="111.40" waitingCount="1" stopTime="0.00" timeLoss="126.54" rerouteNo="1" devices="tripinfo_CalambatoNuvali.0 routing_CalambatoNuvali.0" vType="motorcycle" speedFactor="1.06" vaporized=""/>
    <personinfo id="PalengketoJollibee.4" depart="90.00" type="ped" speedFactor="0.91" duration="152.40" waitingTime="6.90" timeLoss="21.77" traveltime="152.40">
        <walk depart="90.00" departPos="25.00" arrival="242.40" arrivalPos="5.21" duration="152.40" routeLength="164.52" timeLoss="21.77" maxSpeed="1.26" waitingTime="6.90"/>
    </personinfo>
    <tripinfo id="CalambatoStaRosa.1" depart="75.40" departLane="185930141#0_1" departPos="5.10" departSpeed="25.49" departDelay="0.00" arrival="249.70" arrivalLane="-92878383#0_1" arrivalPos="603.68" arrivalSpeed="7.58" duration="174.30" routeLength="1808.59" waitingTime="0.00" waitingCount="0" stopTime="0.00" timeLoss="7.61" rerouteNo="1" devices="tripinfo_CalambatoStaRosa.1 routing_CalambatoStaRosa.1" vType="car" speedFactor="0.92" vaporized=""/>
    <tripinfo id="NuvalitoCalamba.0" depart="45.30" departLane="-145507700#3_1" departPos="2.30" departSpeed="25.08" departDelay="0.00" arrival="251.50" arrivalLane="-185930141#0_1" arrivalPos="428.88" arrivalSpeed="24.87" duration="206.20" routeLength="2324.56" waitingTime="102.50" waitingCount="1" stopTime="0.00" timeLoss="112.17" rerouteNo="1" devices="tripinfo_NuvalitoCalamba.0 routing_NuvalitoCalamba.0" vType="motorcycle" speedFactor="0.90" vaporized=""/>
    <tripinfo id="NuvalitoBalibago.5" depart="111.50" departLane="-145507700#3_1" departPos="8.10" departSpeed="22.81" departDelay="0.00" arrival="252.10" arrivalLane="32083201#1_1" arrivalPos="58.53" arrivalSpeed="13.86" duration="140.60" routeLength="2051.95" waitingTime="0.00" waitingCount="0" stopTime="0.00" timeLoss="34.93" rerouteNo="1" devices="tripinfo_NuvalitoBalibago.5 routing_NuvalitoBalibago.5" vType="jeep" speedFactor="1.00" vaporized=""/>
    <tripinfo id="NuvalitoStaRosa.0" depart="56.20" departLane="-145507700#3_2" departPos="5.10" departSpeed="30.14" departDelay="0.00" arrival="255.20" arrivalLane="-92878383#0_1" arrivalPos="603.68" arrivalSpeed="8.93" duration="199.00" routeLength="2600.04" waitingTime="6.70" waitingCount="2" stopTime="0.00" timeLoss="28.82" rerouteNo="1" devices="tripinfo_NuvalitoStaRosa.0 routing_NuvalitoStaRosa.0" vType="car" speedFactor="1.09" vaporized=""/>
    <personinfo id="JollibeetoPalengke.6" depart="135.00" type="ped" speedFactor="1.05" duration="120.70" waitingTime="0.30" timeLoss="12.42" traveltime="120.70">
        <walk depart="135.00" departPos="10.42" arrival="255.70" arrivalPos="27.04" duration="120.70" routeLength="157.27" timeLoss="12.42" maxSpeed="1.45" waitingTime="0.30"/>
    </personinfo>
    <tripinfo id="CalambatoBalibago.0" depart="55.00" departLane="185930141#0_2" departPos="8.10" departSpeed="27.78" departDelay="0.00" arrival="257.00" arrivalLane="89908334_1" arrivalPos="36.84" arrivalSpeed="8.45" duration="202.00" routeLength="908.17" waitingTime="128.70" waitingCount="2" stopTime="0.00" timeLoss="160.71" rerouteNo="1" devices="tripinfo_CalambatoBalibago.0 routing_CalambatoBalibago.0" vType="jeep" speedFactor="1.00" vaporized=""/>
    <tripinfo id="CalambatoBalibago.1" depart="65.80" departLane="185930141#0_2" departPos="2.30" departSpeed="29.28" departDelay="0.00" arrival="259.10" arrivalLane="89908334_1" arrivalPos="36.84" arrivalSpeed="11.16" duration="193.30" routeLength="913.97" waitingTime="113.70" waitingCount="2" stopTime="0.00" timeLoss="153.92" rerouteNo="1" devices="tripinfo_CalambatoBalibago.1 routing_CalambatoBalibago.1" vType="tricycle" speedFactor="1.05" vaporized=""/>
    <tripinfo id="BalibagotoCalamba.0" depart="42.20" departLane="145507698_1" departPos="7.55" departSpeed="0.00" departDelay="1.80" arrival="261.80" arrivalLane="-185930141#0_2" arrivalPos="428.88" arrivalSpeed="27.72" duration="219.60" routeLength="1526.74" waitingTime="90.90" waitingCount="2" stopTime="0.00" timeLoss="134.94" rerouteNo="1" devices="tripinfo_BalibagotoCalamba.0 routing_BalibagotoCalamba.0" vType="bus" speedFactor="1.00" vaporized=""/>
    <tripinfo id="BalibagotoCalamba.1" depart="93.00" departLane="145507698_1" departPos="7.55" departSpeed="0.00" departDelay="12.10" arrival="262.20" arrivalLane="-185930141#0_1" arrivalPos="428.88" arrivalSpeed="27.77" duration="169.20" routeLength="1523.59" waitingTime="35.70" waitingCount="2" stopTime="0.00" timeLoss="84.97" rerouteNo="1" devices="tripinfo_BalibagotoCalamba.1 routing_BalibagotoCalamba.1" vType="jeep" speedFactor="1.00" vaporized=""/>
    <tripinfo id="CalambatoBalibago.2" depart="79.70" departLane="185930141#0_2" departPos="8.10" departSpeed="27.78" departDelay="0.00" arrival="262.50" arrivalLane="89908334_1" arrivalPos="36.84" arrivalSpeed="8.84" duration="182.80" routeLength="908.17" waitingTime="95.00" waitingCount="2" stopTime="0.00" timeLoss="141.55" rerouteNo="1" devices="tripinfo_CalambatoBalibago.2 routing_CalambatoBalibago.2" vType="jeep" speedFactor="1.00" vaporized=""/>
    <tripinfo id="NuvalitoCalamba.1" depart="121.00" departLane="-145507700#3_2" departPos="2.30" departSpeed="27.69" departDelay="0.00" arrival="263.30" arrivalLane="-185930141#0_2" arrivalPos="428.88" arrivalSpeed="27.67" duration="142.30" routeLength="2324.56" waitingTime="28.80" waitingCount="1" stopTime="0.00" timeLoss="57.13" rerouteNo="1" devices="tripinfo_NuvalitoCalamba.1 routing_NuvalitoCalamba.1" vType="motorcycle" speedFactor="1.00" vaporized=""/>
    <personinfo id="JollibeetoPalengke.5" depart="112.50" type="ped" speedFactor="0.83" duration="151.20" waitingTime="0.00" timeLoss="14.93" traveltime="151.20">
        <walk depart="112.50" departPos="10.42" arrival="263.70" arrivalPos="27.04" duration="151.20" routeLength="157.27" timeLoss="14.93" maxSpeed="1.15" waitingTime="0.00"/>
    </personinfo>
    <tripinfo id="BalibagotoCalamba.2" depart="101.10" departLane="145507698_1" departPos="7.55" departSpeed="0.00" departDelay="18.70" arrival="263.70" arrivalLane="-185930141#0_1" arrivalPos="428.88" arrivalSpeed="27.72" duration="162.60" routeLength="1523.59" waitingTime="28.70" waitingCount="2" stopTime="0.00" timeLoss="78.27" rerouteNo="1" devices="tripinfo_BalibagotoCalamba.2 routing_BalibagotoCalamba.2" vType="jeep" speedFactor="1.00" vaporized=""/>
    <tripinfo id="CalambatoBalibago.3" depart="150.70" departLane="185930141#0_2" departPos="2.30" departSpeed="29.99" departDelay="0.00" arrival="265.00" arrivalLane="89908334_1" arrivalPos="36.84" arrivalSpeed="11.36" duration="114.30" routeLength="913.97" waitingTime="22.50" waitingCount="2" stopTime="0.00" timeLoss="75.84" rerouteNo="1" devices="tripinfo_CalambatoBalibago.3 routing_CalambatoBalibago.3" vType="tricycle" speedFactor="1.08" vaporized=""/>
    <tripinfo id="BalibagotoCalamba.3" depart="126.50" departLane="145507698_1" departPos="7.55" departSpeed="0.00" departDelay="41.30" arrival="266.20" arrivalLane="-185930141#0_2" arrivalPos="428.88" arrivalSpeed="27.75" duration="139.70" routeLength="1523.59" waitingTime="3.60" waitingCount="2" stopTime="0.00" timeLoss="55.36" rerouteNo="1" devices="tripinfo_BalibagotoCalamba.3 routing_BalibagotoCalamba.3" vType="jeep" speedFactor="1.00" vaporized=""/>
    <tripinfo id="BalibagotoCalamba.4" depart="131.30" departLane="145507698_1" departPos="7.55" departSpeed="0.00" departDelay="35.00" arrival="266.50" arrivalLane="-185930141#0_1" arrivalPos="428.88" arrivalSpeed="27.78" duration="135.20" routeLength="1523.59" waitingTime="12.70" waitingCount="1" stopTime="0.00" timeLoss="50.97" rerouteNo="1" devices="tripinfo_BalibagotoCalamba.4 routing_BalibagotoCalamba.4" vType="jeep" speedFactor="1.00" vaporized=""/>
    <tripinfo id="BiñantoCalamba.1" depart="18.60" departLane="553887793#0_2" departPos="5.10" departSpeed="31.93" departDelay="0.00" arrival="267.40" arrivalLane="-185930141#0_2" arrivalPos="428.88" arrivalSpeed="29.98" duration="248.80" routeLength="1507.67" waitingTime="178.60" waitingCount="1" stopTime="0.00" timeLoss="201.58" rerouteNo="1" devices="tripinfo_BiñantoCalamba.1 routing_BiñantoCalamba.1" vType="car" speedFactor="1.15" vaporized=""/>
    <tripinfo id="CalambatoBalibago.4" depart="194.30" departLane="185930141#0_2" departPos="2.30" departSpeed="25.00" departDelay="0.00" arrival="267.60" arrivalLane="89908334_1" arrivalPos="36.84" arrivalSpeed="10.93" duration="73.30" routeLength="913.97" waitingTime="0.00" waitingCount="0" stopTime="0.00" timeLoss="27.24" rerouteNo="1" devices="tripinfo_CalambatoBalibago.4 routing_CalambatoBalibago.4" vType="tricycle" speedFactor="0.90" vaporized=""/>
    <personinfo id="PalengketoJollibee.6" depart="135.00" type="ped" speedFactor="1.04" duration="133.10" waitingTime="1.80" timeLoss="19.60" traveltime="133.10">
        <walk depart="135.00" departPos="25.00" arrival="268.10" arrivalPos="5.21" duration="133.10" routeLength="164.52" timeLoss="19.60" maxSpeed="1.45" waitingTime="1.80"/>
    </personinfo>
    <tripinfo id="BiñantoCalamba.0" depart="15.10" departLane="553887793#0_1" departPos="5.10" departSpeed="28.61" departDelay="0.00" arrival="268.60" arrivalLane="-185930141#0_2" arrivalPos="428.88" arrivalSpeed="28.50" duration="253.50" routeLength="1507.67" waitingTime="174.90" waitingCount="1" stopTime="0.00" timeLoss="200.80" rerouteNo="1" devices="tripinfo_BiñantoCalamba.0 routing_BiñantoCalamba.0" vType="car" speedFactor="1.03" vaporized=""/>
    <tripinfo id="BalibagotoNuvali.7" depart="193.20" departLane="777619905_1" departPos="5.10" departSpeed="0.00" departDelay="0.00" arrival="270.00" arrivalLane="145507700#3_1" arrivalPos="783.31" arrivalSpeed="27.77" duration="76.80" routeLength="1312.87" waitingTime="0.00" waitingCount="0" stopTime="0.00" timeLoss="23.70" rerouteNo="1" devices="tripinfo_BalibagotoNuvali.7 routing_BalibagotoNuvali.7" vType="jeep" speedFactor="1.00" vaporized=""/>
    <tripinfo id="BiñantoCalamba.3" depart="23.50" departLane="553887793#0_2" departPos="8.10" departSpeed="27.78" departDelay="0.00" arrival="272.60" arrivalLane="-185930141#0_1" arrivalPos="428.88" arrivalSpeed="27.74" duration="249.10" routeLength="1504.67" waitingTime="163.50" waitingCount="1" stopTime="0.00" timeLoss="194.85" rerouteNo="1" devices="tripinfo_BiñantoCalamba.3 routing_BiñantoCalamba.3" vType="jeep" speedFactor="1.00" vaporized=""/>
    <personinfo id="PalengketoJollibee.5" depart="112.50" type="ped" speedFactor="0.84" duration="161.10" waitingTime="4.90" timeLoss="20.50" traveltime="161.10">
        <walk depart="112.50" departPos="25.00" arrival="273.60" arrivalPos="5.21" duration="161.10" routeLength="164.52" timeLoss="20.50" maxSpeed="1.17" waitingTime="4.90"/>
    </personinfo>
    <tripinfo id="BiñantoCalamba.4" depart="36.60" departLane="553887793#0_1" departPos="2.30" departSpeed="29.67" departDelay="0.00" arrival="273.90" arrivalLane="-185930141#0_1" arrivalPos="428.88" arrivalSpeed="29.63" duration="237.30" routeLength="1510.47" waitingTime="156.90" waitingCount="1" stopTime="0.00" timeLoss="186.34" rerouteNo="1" devices="tripinfo_BiñantoCalamba.4 routing_BiñantoCalamba.4" vType="tricycle" speedFactor="1.07" vaporized=""/>
    <tripinfo id="BiñantoCalamba.2" depart="21.20" departLane="553887793#0_1" departPos="8.10" departSpeed="27.78" departDelay="0.00" arrival="274.70" arrivalLane="-185930141#0_2" arrivalPos="428.88" arrivalSpeed="27.78" duration="253.50" routeLength="1504.67" waitingTime="170.30" waitingCount="1" stopTime="0.00" timeLoss="199.28" rerouteNo="1" devices="tripinfo_BiñantoCalamba.2 routing_BiñantoCalamba.2" vType="jeep" speedFactor="1.00" vaporized=""/>
    <tripinfo id="BiñantoCalamba.5" depart="178.20" departLane="553887793#0_2" departPos="2.30" departSpeed="32.56" departDelay="0.00" arrival="276.10" arrivalLane="-185930141#0_1" arrivalPos="428.88" arrivalSpeed="30.83" duration="97.90" routeLength="1510.47" waitingTime="22.10" waitingCount="1" stopTime="0.00" timeLoss="51.46" rerouteNo="1" devices="tripinfo_BiñantoCalamba.5 routing_BiñantoCalamba.5" vType="tricycle" speedFactor="1.17" vaporized=""/>
    <personinfo id="PalengketoSTI.0" depart="0.00" type="ped" speedFactor="0.97" duration="278.00" waitingTime="2.70" timeLoss="29.94" traveltime="278.00">
        <walk depart="0.00" departPos="10.42" arrival="278.00" arrivalPos="19.02" duration="278.00" routeLength="335.01" timeLoss="29.94" maxSpeed="1.35" waitingTime="2.70"/>
    </personinfo>
    <personinfo id="JollibeetoSTI.1" depart="22.50" type="ped" speedFactor="1.08" duration="255.80" waitingTime="1.60" timeLoss="31.98" traveltime="255.80">
        <walk depart="22.50" departPos="10.42" arrival="278.30" arrivalPos="19.02" duration="255.80" routeLength="335.01" timeLoss="31.98" maxSpeed="1.50" waitingTime="1.60"/>
    </personinfo>
    <tripinfo id="CalambatoNuvali.1" depart="49.20" departLane="185930141#0_2" departPos="8.10" departSpeed="27.78" departDelay="0.00" arrival="281.40" arrivalLane="145507700#3_1" arrivalPos="783.31" arrivalSpeed="27.76" duration="232.20" routeLength="2329.87" waitingTime="101.60" waitingCount="2" stopTime="0.00" timeLoss="146.72" rerouteNo="1" devices="tripinfo_CalambatoNuvali.1 routing_CalambatoNuvali.1" vType="jeep" speedFactor="1.00" vaporized=""/>
    <tripinfo id="NuvalitoStaRosa.1" depart="76.20" departLane="-145507700#3_1" departPos="8.10" departSpeed="27.78" departDelay="0.00" arrival="283.30" arrivalLane="-92878383#0_1" arrivalPos="603.68" arrivalSpeed="8.31" duration="207.10" routeLength="2597.04" waitingTime="0.00" waitingCount="0" stopTime="0.00" timeLoss="22.54" rerouteNo="1" devices="tripinfo_NuvalitoStaRosa.1 routing_NuvalitoStaRosa.1" vType="jeep" speedFactor="1.00" vaporized=""/>
    <tripinfo id="NuvalitoStaRosa.2" depart="78.80" departLane="-145507700#3_2" departPos="5.10" departSpeed="28.02" departDelay="0.00" arrival="285.60" arrivalLane="-92878383#0_1" arrivalPos="603.68" arrivalSpeed="8.39" duration="206.80" routeLength="2600.04" waitingTime="0.00" waitingCount="0" stopTime="0.00" timeLoss="23.67" rerouteNo="1" devices="tripinfo_NuvalitoStaRosa.2 routing_NuvalitoStaRosa.2" vType="car" speedFactor="1.01" vaporized=""/>
    <tripinfo id="BalibagotoStaRosa.0" depart="63.70" departLane="145507698_1" departPos="7.55" departSpeed="0.00" departDelay="8.30" arrival="297.00" arrivalLane="-92878383#0_1" arrivalPos="603.68" arrivalSpeed="8.28" duration="233.30" routeLength="1986.48" waitingTime="15.10" waitingCount="1" stopTime="0.00" timeLoss="44.16" rerouteNo="1" devices="tripinfo_BalibagotoStaRosa.0 routing_BalibagotoStaRosa.0" vType="bus" speedFactor="1.00" vaporized=""/>