<?xml version="1.0" encoding="UTF-8"?>

<!-- generated on 2026-02-20 16:28:25 by Eclipse SUMO sumo Version 1.24.0
<sumoConfiguration xmlns:xsi="http://www.w3.org/2001/XMLSchema-instance" xsi:noNamespaceSchemaLocation="http://sumo.dlr.de/xsd/sumoConfiguration.xsd">

    <input>
        <net-file value="Balibago_traci/network/balibago_signalized.net.xml"/>
        <route-files value="Balibago_traci/demand/flows_training1.rou.xml"/>
        <additional-files value="Balibago_traci/additionals/balibago.poly.xml,Balibago_traci/ additionals/balibago.add.xml"/>
    </input>

    <output>
        <tripinfo-output value="Balibago_traci/output_DDPG/baseline_trips.xml"/>
        <statistic-output value="Balibago_traci/output_DDPG/baseline_stats.xml"/>
    </output>

    <time>
        <begin value="0"/>
        <end value="10800"/>
        <step-length value="0.1"/>
    </time>

    <processing>
        <lateral-resolution value="0.1"/>
        <collision.action value="none"/>
        <collision.check-junctions value="false"/>
        <collision.mingap-factor value="0"/>
    </processing>

    <report>
        <no-warnings value="true"/>
    </report>

    <traci_server>
        <remote-port value="59778"/>
    </traci_server>

    <gui_only>
        <delay value="0"/>
    </gui_only>

</sumoConfiguration>
-->

<tripinfos xmlns:xsi="http://www.w3.org/2001/XMLSchema-instance" xsi:noNamespaceSchemaLocation="http://sumo.dlr.de/xsd/tripinfo_file.xsd">
    <tripinfo id="NuvalitoBiñan_1.0" depart="0.70" departLane="-145507700#3_1" departPos="2.30" departPosLat="0.00" departSpeed="29.34" departDelay="0.00" arrival="83.20" arrivalLane="-553887793#0_2" arrivalPos="201.31" arrivalPosLat="0.00" arrivalSpeed="29.28" duration="82.50" routeLength="2096.19" waitingTime="0.00" waitingCount="0" stopTime="0.00" timeLoss="9.84" rerouteNo="1" devices="tripinfo_NuvalitoBiñan_1.0 routing_NuvalitoBiñan_1.0" vType="tricycle" speedFactor="1.06" vaporized=""/>
    <tripinfo id="BalibagotoNuvali_1.0" depart="9.20" departLane="777619905_1" departPos="5.10" departPosLat="0.00" departSpeed="0.00" departDelay="0.00" arrival="85.80" arrivalLane="145507700#3_1" arrivalPos="783.31" arrivalPosLat="-0.00" arrivalSpeed="27.75" duration="76.60" routeLength="1312.87" waitingTime="0.00" waitingCount="0" stopTime="0.00" timeLoss="23.56" rerouteNo="1" devices="tripinfo_BalibagotoNuvali_1.0 routing_BalibagotoNuvali_1.0" vType="jeep" speedFactor="1.00" vaporized=""/>
    <tripinfo id="BiñantoBalibago_1.0" depart="52.30" departLane="553887793#0_1" departPos="2.30" departPosLat="0.00" departSpeed="32.04" departDelay="0.00" arrival="101.40" arrivalLane="-32083237#0_1" arrivalPos="36.46" arrivalPosLat="0.00" arrivalSpeed="15.34" duration="49.10" routeLength="1002.13" waitingTime="0.00" waitingCount="0" stopTime="0.00" timeLoss="14.59" rerouteNo="1" devices="tripinfo_BiñantoBalibago_1.0 routing_BiñantoBalibago_1.0" vType="tricycle" speedFactor="1.15" vaporized=""/>
    <personinfo id="pf_JollibeetoPalengke_1.0" depart="0.00" type="ped" speedFactor="1.06" duration="118.40" waitingTime="0.00" timeLoss="11.57" traveltime="118.40">
        <walk depart="0.00" departPos="10.42" arrival="118.40" arrivalPos="27.04" duration="118.40" routeLength="157.27" timeLoss="11.57" maxSpeed="1.47" waitingTime="0.00"/>
    </personinfo>
    <tripinfo id="BalibagotoCalamba_1.0" depart="40.60" departLane="145507698_1" departPos="2.30" departPosLat="0.00" departSpeed="0.61" departDelay="0.20" arrival="138.20" arrivalLane="-185930141#0_2" arrivalPos="428.88" arrivalPosLat="0.00" arrivalSpeed="30.22" duration="97.60" routeLength="1531.99" waitingTime="0.00" waitingCount="0" stopTime="0.00" timeLoss="19.86" rerouteNo="1" devices="tripinfo_BalibagotoCalamba_1.0 routing_BalibagotoCalamba_1.0" vType="tricycle" speedFactor="1.09" vaporized=""/>
    <personinfo id="pf_PalengketoJollibee_1.0" depart="0.00" type="ped" speedFactor="0.89" duration="147.50" waitingTime="0.00" timeLoss="14.67" traveltime="147.50">
        <walk depart="0.00" departPos="25.00" arrival="147.50" arrivalPos="5.21" duration="147.50" routeLength="164.52" timeLoss="14.67" maxSpeed="1.24" waitingTime="0.00"/>
    </personinfo>
    <tripinfo id="BiñantoNuvali_1.0" depart="70.30" departLane="553887793#0_1" departPos="5.10" departPosLat="0.00" departSpeed="32.88" departDelay="0.00" arrival="150.10" arrivalLane="145507700#3_1" arrivalPos="783.31" arrivalPosLat="-0.00" arrivalSpeed="32.80" duration="79.80" routeLength="2083.73" waitingTime="0.00" waitingCount="0" stopTime="0.00" timeLoss="15.53" rerouteNo="1" devices="tripinfo_BiñantoNuvali_1.0 routing_BiñantoNuvali_1.0" vType="car" speedFactor="1.18" vaporized=""/>
    <tripinfo id="BiñantoBalibago_1.1" depart="90.20" departLane="553887793#0_1" departPos="8.10" departPosLat="0.00" departSpeed="27.78" departDelay="0.00" arrival="153.10" arrivalLane="-32083237#0_1" arrivalPos="36.46" arrivalPosLat="0.00" arrivalSpeed="11.24" duration="62.90" routeLength="996.33" waitingTime="0.00" waitingCount="0" stopTime="0.00" timeLoss="23.33" rerouteNo="1" devices="tripinfo_BiñantoBalibago_1.1 routing_BiñantoBalibago_1.1" vType="jeep" speedFactor="1.00" vaporized=""/>
    <tripinfo id="NuvalitoCalamba_1.0" depart="45.30" departLane="-145507700#3_1" departPos="5.10" departPosLat="0.00" departSpeed="23.08" departDelay="0.00" arrival="160.00" arrivalLane="-185930141#0_1" arrivalPos="428.88" arrivalPosLat="-0.00" arrivalSpeed="23.00" duration="114.70" routeLength="2321.76" waitingTime="0.00" waitingCount="0" stopTime="0.00" timeLoss="12.68" rerouteNo="1" devices="tripinfo_NuvalitoCalamba_1.0 routing_NuvalitoCalamba_1.0" vType="car" speedFactor="0.83" vaporized=""/>
    <personinfo id="pf_JollibeetoPalengke_1.1" depart="60.00" type="ped" speedFactor="0.94" duration="134.10" waitingTime="0.00" timeLoss="13.42" traveltime="134.10">
        <walk depart="60.00" departPos="10.42" arrival="194.10" arrivalPos="27.04" duration="134.10" routeLength="157.27" timeLoss="13.42" maxSpeed="1.30" waitingTime="0.00"/>
    </personinfo>
    <tripinfo id="CalambatoBalibago_1.0" depart="150.70" departLane="185930141#0_2" departPos="2.30" departPosLat="0.00" departSpeed="32.63" departDelay="0.00" arrival="216.50" arrivalLane="89908334_1" arrivalPos="36.84" arrivalPosLat="0.00" arrivalSpeed="11.28" duration="65.80" routeLength="913.97" waitingTime="10.20" waitingCount="1" stopTime="0.00" timeLoss="30.47" rerouteNo="1" devices="tripinfo_CalambatoBalibago_1.0 routing_CalambatoBalibago_1.0" vType="tricycle" speedFactor="1.17" vaporized=""/>
    <tripinfo id="NuvalitoCalamba_1.1" depart="121.00" departLane="-145507700#3_2" departPos="5.10" departPosLat="0.00" departSpeed="29.22" departDelay="0.00" arrival="218.70" arrivalLane="-185930141#0_2" arrivalPos="428.88" arrivalPosLat="0.00" arrivalSpeed="29.11" duration="97.70" routeLength="2321.76" waitingTime="0.00" waitingCount="0" stopTime="0.00" timeLoss="17.09" rerouteNo="1" devices="tripinfo_NuvalitoCalamba_1.1 routing_NuvalitoCalamba_1.1" vType="car" speedFactor="1.05" vaporized=""/>
    <tripinfo id="BalibagotoCalamba_1.1" depart="80.90" departLane="145507698_1" departPos="2.30" departPosLat="0.00" departSpeed="9.75" departDelay="0.00" arrival="221.70" arrivalLane="-185930141#0_1" arrivalPos="428.88" arrivalPosLat="0.00" arrivalSpeed="25.74" duration="140.80" routeLength="1531.99" waitingTime="28.20" waitingCount="1" stopTime="0.00" timeLoss="49.43" rerouteNo="1" devices="tripinfo_BalibagotoCalamba_1.1 routing_BalibagotoCalamba_1.1" vType="tricycle" speedFactor="0.93" vaporized=""/>
    <personinfo id="pf_PalengketoJollibee_1.1" depart="72.00" type="ped" speedFactor="0.83" duration="158.10" waitingTime="0.00" timeLoss="16.00" traveltime="158.10">
        <walk depart="72.00" departPos="25.00" arrival="230.10" arrivalPos="5.21" duration="158.10" routeLength="164.52" timeLoss="16.00" maxSpeed="1.16" waitingTime="0.00"/>
    </personinfo>
    <tripinfo id="CalambatoBiñan_1.0" depart="32.70" departLane="185930141#0_1" departPos="8.10" departPosLat="0.00" departSpeed="27.78" departDelay="0.00" arrival="230.70" arrivalLane="-553887793#0_1" arrivalPos="201.31" arrivalPosLat="0.00" arrivalSpeed="27.78" duration="198.00" routeLength="1504.67" waitingTime="117.40" waitingCount="1" stopTime="0.00" timeLoss="143.81" rerouteNo="1" devices="tripinfo_CalambatoBiñan_1.0 routing_CalambatoBiñan_1.0" vType="jeep" speedFactor="1.00" vaporized=""/>
    <personinfo id="pf_JollibeetoSTI_1.0" depart="0.00" type="ped" speedFactor="1.18" duration="230.90" waitingTime="1.10" timeLoss="26.24" traveltime="230.90">
        <walk depart="0.00" departPos="10.42" arrival="230.90" arrivalPos="19.02" duration="230.90" routeLength="335.01" timeLoss="26.24" maxSpeed="1.64" waitingTime="1.10"/>
    </personinfo>
    <tripinfo id="BalibagotoBiñan_1.0" depart="37.20" departLane="145507698_1" departPos="7.55" departPosLat="0.00" departSpeed="0.00" departDelay="0.00" arrival="231.00" arrivalLane="-553887793#0_2" arrivalPos="201.31" arrivalPosLat="0.00" arrivalSpeed="27.74" duration="193.80" routeLength="1682.41" waitingTime="48.70" waitingCount="1" stopTime="0.00" timeLoss="103.88" rerouteNo="1" devices="tripinfo_BalibagotoBiñan_1.0 routing_BalibagotoBiñan_1.0" vType="jeep" speedFactor="1.00" vaporized=""/>
    <personinfo id="pf_JollibeetoPalengke_1.2" depart="120.00" type="ped" speedFactor="1.01" duration="124.70" waitingTime="0.00" timeLoss="12.63" traveltime="124.70">
        <walk depart="120.00" departPos="10.42" arrival="244.70" arrivalPos="27.04" duration="124.70" routeLength="157.27" timeLoss="12.63" maxSpeed="1.40" waitingTime="0.00"/>
    </personinfo>
    <tripinfo id="BalibagotoStaRosa_1.0" depart="55.40" departLane="145507698_1" departPos="2.30" departPosLat="0.00" departSpeed="9.75" departDelay="0.00" arrival="247.40" arrivalLane="-92878383#0_1" arrivalPos="603.68" arrivalPosLat="0.00" arrivalSpeed="9.00" duration="192.00" routeLength="1991.73" waitingTime="0.00" waitingCount="0" stopTime="0.00" timeLoss="16.88" rerouteNo="1" devices="tripinfo_BalibagotoStaRosa_1.0 routing_BalibagotoStaRosa_1.0" vType="tricycle" speedFactor="1.08" vaporized=""/>
    <personinfo id="pf_STItoSakayan_1.0" depart="0.00" type="ped" speedFactor="1.18" duration="253.70" waitingTime="0.00" timeLoss="25.50" traveltime="253.70">
        <walk depart="0.00" departPos="25.00" arrival="253.70" arrivalPos="27.04" duration="253.70" routeLength="373.08" timeLoss="25.50" maxSpeed="1.63" waitingTime="0.00"/>
    </personinfo>
    <tripinfo id="NuvalitoStaRosa_1.0" depart="56.20" departLane="-145507700#3_2" departPos="5.10" departPosLat="0.00" departSpeed="27.99" departDelay="0.00" arrival="263.60" arrivalLane="-92878383#0_1" arrivalPos="603.68" arrivalPosLat="-0.00" arrivalSpeed="8.35" duration="207.40" routeLength="2600.04" waitingTime="6.30" waitingCount="1" stopTime="0.00" timeLoss="24.02" rerouteNo="1" devices="tripinfo_NuvalitoStaRosa_1.0 routing_NuvalitoStaRosa_1.0" vType="car" speedFactor="1.01" vaporized=""/>
    <tripinfo id="CalambatoNuvali_1.0" depart="49.20" departLane="185930141#0_2" departPos="5.10" departPosLat="0.00" departSpeed="31.59" departDelay="0.00" arrival="268.40" arrivalLane="145507700#3_1" arrivalPos="783.31" arrivalPosLat="-0.00" arrivalSpeed="31.48" duration="219.20" routeLength="2332.87" waitingTime="106.40" waitingCount="3" stopTime="0.00" timeLoss="143.91" rerouteNo="1" devices="tripinfo_CalambatoNuvali_1.0 routing_CalambatoNuvali_1.0" vType="car" speedFactor="1.14" vaporized=""/>
    <tripinfo id="NuvalitoStaRosa_1.1" depart="76.20" departLane="-145507700#3_1" departPos="8.10" departPosLat="0.00" departSpeed="27.78" departDelay="0.00" arrival="278.90" arrivalLane="-92878383#0_1" arrivalPos="603.68" arrivalPosLat="-0.00" arrivalSpeed="8.28" duration="202.70" routeLength="2597.04" waitingTime="0.00" waitingCount="0" stopTime="0.00" timeLoss="18.22" rerouteNo="1" devices="tripinfo_NuvalitoStaRosa_1.1 routing_NuvalitoStaRosa_1.1" vType="jeep" speedFactor="1.00" vaporized=""/>
    <personinfo id="pf_PalengketoJollibee_1.2" depart="144.00" type="ped" speedFactor="0.92" duration="142.80" waitingTime="0.00" timeLoss="14.24" traveltime="142.80">
        <walk depart="144.00" departPos="25.00" arrival="286.80" arrivalPos="5.21" duration="142.80" routeLength="164.52" timeLoss="14.24" maxSpeed="1.28" waitingTime="0.00"/>
    </personinfo>
    <personinfo id="pf_JollibeetoPalengke_1.3" depart="180.00" type="ped" speedFactor="1.08" duration="119.30" waitingTime="2.90" timeLoss="14.71" traveltime="119.30">
        <walk depart="180.00" departPos="10.42" arrival="299.30" arrivalPos="27.04" duration="119.30" routeLength="157.27" timeLoss="14.71" maxSpeed="1.50" waitingTime="2.90"/>
    </personinfo>
    <tripinfo id="BiñantoCalamba_1.0" depart="178.20" departLane="553887793#0_1" departPos="7.20" departPosLat="0.00" departSpeed="27.64" departDelay="0.00" arrival="304.00" arrivalLane="-185930141#0_1" arrivalPos="428.88" arrivalPosLat="0.00" arrivalSpeed="27.62" duration="125.80" routeLength="1505.57" waitingTime="32.20" waitingCount="2" stopTime="0.00" timeLoss="71.26" rerouteNo="1" devices="tripinfo_BiñantoCalamba_1.0 routing_BiñantoCalamba_1.0" vType="truck" speedFactor="0.99" vaporized=""/>
    <tripinfo id="CalambatoBalibago_1.1" depart="194.30" departLane="185930141#0_2" departPos="12.10" departPosLat="0.00" departSpeed="27.78" departDelay="0.00" arrival="304.70" arrivalLane="89908334_1" arrivalPos="36.84" arrivalPosLat="0.00" arrivalSpeed="8.96" duration="110.40" routeLength="904.17" waitingTime="40.40" waitingCount="1" stopTime="0.00" timeLoss="69.27" rerouteNo="1" devices="tripinfo_CalambatoBalibago_1.1 routing_CalambatoBalibago_1.1" vType="bus" speedFactor="1.00" vaporized=""/>
    <tripinfo id="NuvalitoStaRosa_1.2" depart="111.10" departLane="-145507700#3_1" departPos="5.10" departPosLat="0.00" departSpeed="27.84" departDelay="0.00" arrival="308.30" arrivalLane="-92878383#0_1" arrivalPos="603.68" arrivalPosLat="-0.00" arrivalSpeed="8.32" duration="197.20" routeLength="2600.04" waitingTime="0.00" waitingCount="0" stopTime="0.00" timeLoss="12.92" rerouteNo="1" devices="tripinfo_NuvalitoStaRosa_1.2 routing_NuvalitoStaRosa_1.2" vType="car" speedFactor="1.00" vaporized=""/>
    <personinfo id="pf_JollibeetoSTI_1.1" depart="80.00" type="ped" speedFactor="1.15" duration="232.00" waitingTime="0.00" timeLoss="23.05" traveltime="232.00">
        <walk depart="80.00" departPos="10.42" arrival="312.00" arrivalPos="19.02" duration="232.00" routeLength="335.01" timeLoss="23.05" maxSpeed="1.60" waitingTime="0.00"/>
    </personinfo>
    <tripinfo id="BalibagotoBiñan_1.1" depart="185.50" departLane="145507698_1" departPos="7.55" departPosLat="0.00" departSpeed="0.00" departDelay="0.00" arrival="313.80" arrivalLane="-553887793#0_2" arrivalPos="201.31" arrivalPosLat="0.00" arrivalSpeed="27.78" duration="128.30" routeLength="1682.41" waitingTime="0.00" waitingCount="0" stopTime="0.00" timeLoss="38.17" rerouteNo="1" devices="tripinfo_BalibagotoBiñan_1.1 routing_BalibagotoBiñan_1.1" vType="jeep" speedFactor="1.00" vaporized=""/>
    <tripinfo id="CalambatoBiñan_1.1" depart="252.30" departLane="185930141#0_1" departPos="5.10" departPosLat="0.00" departSpeed="27.85" departDelay="0.00" arrival="315.20" arrivalLane="-553887793#0_1" arrivalPos="201.31" arrivalPosLat="0.00" arrivalSpeed="27.73" duration="62.90" routeLength="1507.67" waitingTime="0.00" waitingCount="0" stopTime="0.00" timeLoss="8.77" rerouteNo="1" devices="tripinfo_CalambatoBiñan_1.1 routing_CalambatoBiñan_1.1" vType="car" speedFactor="1.00" vaporized=""/>
    <personinfo id="pf_PalengketoJollibee_1.3" depart="216.00" type="ped" speedFactor="1.09" duration="121.40" waitingTime="0.60" timeLoss="12.82" traveltime="121.40">
        <walk depart="216.00" departPos="25.00" arrival="337.40" arrivalPos="5.21" duration="121.40" routeLength="164.52" timeLoss="12.82" maxSpeed="1.52" waitingTime="0.60"/>
    </personinfo>
    <tripinfo id="BiñantoStaRosa_1.0" depart="24.20" departLane="553887793#0_1" departPos="2.30" departPosLat="0.00" departSpeed="27.78" departDelay="0.00" arrival="361.10" arrivalLane="-92878383#0_1" arrivalPos="603.68" arrivalPosLat="-0.00" arrivalSpeed="8.10" duration="336.90" routeLength="1788.75" waitingTime="175.50" waitingCount="1" stopTime="0.00" timeLoss="182.64" rerouteNo="1" devices="tripinfo_BiñantoStaRosa_1.0 routing_BiñantoStaRosa_1.0" vType="motorcycle" speedFactor="1.00" vaporized=""/>
    <tripinfo id="StaRosatoBiñan_1.0" depart="38.20" departLane="92878383#0_1" departPos="8.10" departPosLat="0.00" departSpeed="8.33" departDelay="0.00" arrival="362.00" arrivalLane="-553887793#0_1" arrivalPos="201.31" arrivalPosLat="-0.00" arrivalSpeed="27.73" duration="323.80" routeLength="1604.72" waitingTime="168.20" waitingCount="1" stopTime="0.00" timeLoss="183.50" rerouteNo="1" devices="tripinfo_StaRosatoBiñan_1.0 routing_StaRosatoBiñan_1.0" vType="jeep" speedFactor="1.00" vaporized=""/>
    <personinfo id="pf_JollibeetoPalengke_1.4" depart="240.00" type="ped" speedFactor="1.03" duration="122.10" waitingTime="0.00" timeLoss="12.19" traveltime="122.10">
        <walk depart="240.00" departPos="10.42" arrival="362.10" arrivalPos="27.04" duration="122.10" routeLength="157.27" timeLoss="12.19" maxSpeed="1.43" waitingTime="0.00"/>
    </personinfo>
    <tripinfo id="StaRosatoBiñan_1.1" depart="116.90" departLane="92878383#0_1" departPos="8.10" departPosLat="0.00" departSpeed="5.25" departDelay="0.90" arrival="363.40" arrivalLane="-553887793#0_1" arrivalPos="201.31" arrivalPosLat="-0.00" arrivalSpeed="27.73" duration="246.50" routeLength="1604.72" waitingTime="86.90" waitingCount="1" stopTime="0.00" timeLoss="106.19" rerouteNo="1" devices="tripinfo_StaRosatoBiñan_1.1 routing_StaRosatoBiñan_1.1" vType="jeep" speedFactor="1.00" vaporized=""/>
    <tripinfo id="StaRosatoBalibago_1.0" depart="5.30" departLane="92878383#0_1" departPos="8.10" departPosLat="0.00" departSpeed="8.33" departDelay="0.00" arrival="367.50" arrivalLane="-32083237#0_1" arrivalPos="36.46" arrivalPosLat="0.00" arrivalSpeed="11.40" duration="362.20" routeLength="1358.46" waitingTime="201.10" waitingCount="1" stopTime="0.00" timeLoss="228.83" rerouteNo="1" devices="tripinfo_StaRosatoBalibago_1.0 routing_StaRosatoBalibago_1.0" vType="jeep" speedFactor="1.00" vaporized=""/>
    <tripinfo id="StaRosatoCalamba_1.0" depart="77.60" departLane="92878383#0_1" departPos="5.10" departPosLat="0.00" departSpeed="5.24" departDelay="0.10" arrival="371.00" arrivalLane="-185930141#0_2" arrivalPos="428.88" arrivalPosLat="0.00" arrivalSpeed="32.51" duration="293.40" routeLength="1855.46" waitingTime="127.20" waitingCount="1" stopTime="0.00" timeLoss="165.88" rerouteNo="1" devices="tripinfo_StaRosatoCalamba_1.0 routing_StaRosatoCalamba_1.0" vType="car" speedFactor="1.17" vaporized=""/>
    <tripinfo id="StaRosatoBalibago_1.1" depart="76.60" departLane="92878383#0_1" departPos="12.10" departPosLat="0.00" departSpeed="8.33" departDelay="0.00" arrival="378.10" arrivalLane="-32083237#0_1" arrivalPos="36.46" arrivalPosLat="0.00" arrivalSpeed="11.16" duration="301.50" routeLength="1354.46" waitingTime="131.20" waitingCount="2" stopTime="0.00" timeLoss="168.60" rerouteNo="1" devices="tripinfo_StaRosatoBalibago_1.1 routing_StaRosatoBalibago_1.1" vType="bus" speedFactor="1.00" vaporized=""/>
    <tripinfo id="CalambatoBalibago_1.2" depart="238.20" departLane="185930141#0_2" departPos="8.10" departPosLat="0.00" departSpeed="27.78" departDelay="0.00" arrival="381.30" arrivalLane="89908334_1" arrivalPos="36.84" arrivalPosLat="0.00" arrivalSpeed="8.80" duration="143.10" routeLength="908.17" waitingTime="69.30" waitingCount="1" stopTime="0.00" timeLoss="101.72" rerouteNo="1" devices="tripinfo_CalambatoBalibago_1.2 routing_CalambatoBalibago_1.2" vType="jeep" speedFactor="1.00" vaporized=""/>
    <tripinfo id="StaRosatoBalibago_1.2" depart="115.60" departLane="92878383#0_1" departPos="8.10" departPosLat="0.00" departSpeed="8.33" departDelay="0.00" arrival="381.60" arrivalLane="-32083237#0_1" arrivalPos="36.46" arrivalPosLat="0.00" arrivalSpeed="11.29" duration="266.00" routeLength="1358.46" waitingTime="83.00" waitingCount="2" stopTime="0.00" timeLoss="132.61" rerouteNo="1" devices="tripinfo_StaRosatoBalibago_1.2 routing_StaRosatoBalibago_1.2" vType="jeep" speedFactor="1.00" vaporized=""/>
    <tripinfo id="StaRosatoCalamba_1.1" depart="93.90" departLane="92878383#0_1" departPos="7.20" departPosLat="0.00" departSpeed="8.60" departDelay="0.00" arrival="381.80" arrivalLane="-185930141#0_2" arrivalPos="428.88" arrivalPosLat="0.00" arrivalSpeed="28.68" duration="287.90" routeLength="1853.36" waitingTime="118.10" waitingCount="1" stopTime="0.00" timeLoss="143.13" rerouteNo="1" devices="tripinfo_StaRosatoCalamba_1.1 routing_StaRosatoCalamba_1.1" vType="truck" speedFactor="1.03" vaporized=""/>
    <tripinfo id="StaRosatoCalamba_1.2" depart="95.10" departLane="92878383#0_1" departPos="7.20" departPosLat="0.00" departSpeed="5.66" departDelay="0.40" arrival="384.00" arrivalLane="-185930141#0_2" arrivalPos="428.88" arrivalPosLat="0.00" arrivalSpeed="28.90" duration="288.90" routeLength="1853.36" waitingTime="116.60" waitingCount="1" stopTime="0.00" timeLoss="145.27" rerouteNo="1" devices="tripinfo_StaRosatoCalamba_1.2 routing_StaRosatoCalamba_1.2" vType="truck" speedFactor="1.04" vaporized=""/>
    <tripinfo id="StaRosatoBalibago_1.3" depart="141.60" departLane="92878383#0_1" departPos="8.10" departPosLat="0.00" departSpeed="8.33" departDelay="0.00" arrival="384.60" arrivalLane="-32083237#0_1" arrivalPos="36.46" arrivalPosLat="0.00" arrivalSpeed="11.27" duration="243.00" routeLength="1358.46" waitingTime="59.70" waitingCount="3" stopTime="0.00" timeLoss="109.64" rerouteNo="1" devices="tripinfo_StaRosatoBalibago_1.3 routing_StaRosatoBalibago_1.3" vType="jeep" speedFactor="1.00" vaporized=""/>
    <tripinfo id="CalambatoBalibago_1.3" depart="267.10" departLane="185930141#0_2" departPos="8.10" departPosLat="0.00" departSpeed="27.78" departDelay="0.00" arrival="385.40" arrivalLane="89908334_1" arrivalPos="36.84" arrivalPosLat="0.00" arrivalSpeed="8.98" duration="118.30" routeLength="908.17" waitingTime="40.40" waitingCount="1" stopTime="0.00" timeLoss="77.08" rerouteNo="1" devices="tripinfo_CalambatoBalibago_1.3 routing_CalambatoBalibago_1.3" vType="jeep" speedFactor="1.00" vaporized=""/>
    <tripinfo id="StaRosatoBalibago_1.4" depart="187.70" departLane="92878383#0_1" departPos="2.30" departPosLat="0.00" departSpeed="9.35" departDelay="0.00" arrival="386.30" arrivalLane="-32083237#0_1" arrivalPos="36.46" arrivalPosLat="0.00" arrivalSpeed="12.92" duration="198.60" routeLength="1364.26" waitingTime="32.20" waitingCount="3" stopTime="0.00" timeLoss="79.14" rerouteNo="1" devices="tripinfo_StaRosatoBalibago_1.4 routing_StaRosatoBalibago_1.4" vType="tricycle" speedFactor="1.12" vaporized=""/>
    <personinfo id="pf_STItoSakayan_1.1" depart="90.00" type="ped" speedFactor="1.00" duration="297.10" waitingTime="0.00" timeLoss="29.63" traveltime="297.10">
        <walk depart="90.00" departPos="25.00" arrival="387.10" arrivalPos="27.04" duration="297.10" routeLength="373.08" timeLoss="29.63" maxSpeed="1.39" waitingTime="0.00"/>
    </personinfo>
    <tripinfo id="StaRosatoCalamba_1.3" depart="216.90" departLane="92878383#0_1" departPos="7.20" departPosLat="0.00" departSpeed="8.32" departDelay="0.00" arrival="387.80" arrivalLane="-185930141#0_1" arrivalPos="428.88" arrivalPosLat="-0.00" arrivalSpeed="27.74" duration="170.90" routeLength="1853.36" waitingTime="0.00" waitingCount="0" stopTime="0.00" timeLoss="21.26" rerouteNo="1" devices="tripinfo_StaRosatoCalamba_1.3 routing_StaRosatoCalamba_1.3" vType="truck" speedFactor="1.00" vaporized=""/>
    <tripinfo id="StaRosatoBalibago_1.5" depart="224.80" departLane="92878383#0_1" departPos="8.10" departPosLat="0.00" departSpeed="8.33" departDelay="0.00" arrival="390.60" arrivalLane="-32083237#0_1" arrivalPos="36.46" arrivalPosLat="0.00" arrivalSpeed="11.35" duration="165.80" routeLength="1358.46" waitingTime="0.00" waitingCount="0" stopTime="0.00" timeLoss="32.46" rerouteNo="1" devices="tripinfo_StaRosatoBalibago_1.5 routing_StaRosatoBalibago_1.5" vType="jeep" speedFactor="1.00" vaporized=""/>
    <tripinfo id="StaRosatoNuvali_1.0" depart="193.30" departLane="92878383#0_1" departPos="2.30" departPosLat="0.00" departSpeed="7.78" departDelay="0.00" arrival="403.40" arrivalLane="145507700#3_1" arrivalPos="783.31" arrivalPosLat="0.00" arrivalSpeed="25.93" duration="210.10" routeLength="2448.66" waitingTime="8.70" waitingCount="1" stopTime="0.00" timeLoss="27.48" rerouteNo="1" devices="tripinfo_StaRosatoNuvali_1.0 routing_StaRosatoNuvali_1.0" vType="tricycle" speedFactor="0.93" vaporized=""/>
    <tripinfo id="StaRosatoNuvali_1.1" depart="235.40" departLane="92878383#0_1" departPos="5.10" departPosLat="0.00" departSpeed="8.78" departDelay="0.00" arrival="408.30" arrivalLane="145507700#3_1" arrivalPos="783.31" arrivalPosLat="0.00" arrivalSpeed="29.19" duration="172.90" routeLength="2445.86" waitingTime="0.00" waitingCount="0" stopTime="0.00" timeLoss="11.58" rerouteNo="1" devices="tripinfo_StaRosatoNuvali_1.1 routing_StaRosatoNuvali_1.1" vType="car" speedFactor="1.05" vaporized=""/>
    <personinfo id="pf_JollibeetoTarget_1.0" depart="0.00" type="ped" speedFactor="1.10" duration="409.00" waitingTime="2.10" timeLoss="44.31" traveltime="409.00">
        <walk depart="0.00" departPos="10.42" arrival="409.00" arrivalPos="16.04" duration="409.00" routeLength="555.05" timeLoss="44.31" maxSpeed="1.52" waitingTime="2.10"/>
    </personinfo>
    <tripinfo id="NuvalitoBiñan_1.1" depart="271.60" departLane="-145507700#3_1" departPos="5.10" departPosLat="0.00" departSpeed="24.93" departDelay="0.00" arrival="412.80" arrivalLane="-553887793#0_2" arrivalPos="201.31" arrivalPosLat="0.00" arrivalSpeed="24.87" duration="141.20" routeLength="2093.39" waitingTime="38.00" waitingCount="2" stopTime="0.00" timeLoss="55.80" rerouteNo="1" devices="tripinfo_NuvalitoBiñan_1.1 routing_NuvalitoBiñan_1.1" vType="car" speedFactor="0.90" vaporized=""/>
    <personinfo id="pf_PalengketoJollibee_1.4" depart="288.00" type="ped" speedFactor="1.06" duration="126.60" waitingTime="1.80" timeLoss="14.51" traveltime="126.60">
        <walk depart="288.00" departPos="25.00" arrival="414.60" arrivalPos="5.21" duration="126.60" routeLength="164.52" timeLoss="14.51" maxSpeed="1.47" waitingTime="1.80"/>
    </personinfo>
    <tripinfo id="NuvalitoBiñan_1.2" depart="341.80" departLane="-145507700#3_1" departPos="2.30" departPosLat="0.00" departSpeed="33.13" departDelay="0.00" arrival="417.60" arrivalLane="-553887793#0_2" arrivalPos="201.31" arrivalPosLat="0.00" arrivalSpeed="33.05" duration="75.80" routeLength="2096.19" waitingTime="0.00" waitingCount="0" stopTime="0.00" timeLoss="11.44" rerouteNo="1" devices="tripinfo_NuvalitoBiñan_1.2 routing_NuvalitoBiñan_1.2" vType="tricycle" speedFactor="1.19" vaporized=""/>
    <tripinfo id="BiñantoStaRosa_1.1" depart="250.00" departLane="553887793#0_2" departPos="8.10" departPosLat="0.00" departSpeed="27.78" departDelay="0.00" arrival="419.80" arrivalLane="-92878383#0_1" arrivalPos="603.68" arrivalPosLat="-0.00" arrivalSpeed="8.29" duration="169.80" routeLength="1782.95" waitingTime="7.40" waitingCount="1" stopTime="0.00" timeLoss="15.64" rerouteNo="1" devices="tripinfo_BiñantoStaRosa_1.1 routing_BiñantoStaRosa_1.1" vType="jeep" speedFactor="1.00" vaporized=""/>
    <tripinfo id="BalibagotoNuvali_1.1" depart="337.00" departLane="777619905_1" departPos="5.10" departPosLat="0.00" departSpeed="0.00" departDelay="0.00" arrival="425.20" arrivalLane="145507700#3_1" arrivalPos="783.31" arrivalPosLat="-0.00" arrivalSpeed="27.72" duration="88.20" routeLength="1312.87" waitingTime="4.60" waitingCount="1" stopTime="0.00" timeLoss="35.10" rerouteNo="1" devices="tripinfo_BalibagotoNuvali_1.1 routing_BalibagotoNuvali_1.1" vType="jeep" speedFactor="1.00" vaporized=""/>
    <personinfo id="pf_JollibeetoSTI_1.2" depart="160.00" type="ped" speedFactor="1.01" duration="265.90" waitingTime="0.00" timeLoss="25.94" traveltime="265.90">
        <walk depart="160.00" departPos="10.42" arrival="425.90" arrivalPos="19.02" duration="265.90" routeLength="335.01" timeLoss="25.94" maxSpeed="1.40" waitingTime="0.00"/>
    </personinfo>
    <personinfo id="pf_TargettoSakayan_1.0" depart="0.00" type="ped" speedFactor="1.12" duration="426.40" waitingTime="0.20" timeLoss="43.03" traveltime="426.40">
        <walk depart="0.00" departPos="25.00" arrival="426.40" arrivalPos="27.04" duration="426.40" routeLength="596.09" timeLoss="43.03" maxSpeed="1.55" waitingTime="0.20"/>
    </personinfo>
    <tripinfo id="BiñantoBalibago_1.2" depart="333.00" departLane="553887793#0_1" departPos="8.10" departPosLat="0.00" departSpeed="27.78" departDelay="0.00" arrival="426.70" arrivalLane="-32083237#0_1" arrivalPos="36.46" arrivalPosLat="0.00" arrivalSpeed="11.48" duration="93.70" routeLength="996.33" waitingTime="18.30" waitingCount="1" stopTime="0.00" timeLoss="54.07" rerouteNo="1" devices="tripinfo_BiñantoBalibago_1.2 routing_BiñantoBalibago_1.2" vType="jeep" speedFactor="1.00" vaporized=""/>
    <tripinfo id="BalibagotoStaRosa_1.1" depart="214.70" departLane="145507698_1" departPos="7.55" departPosLat="0.00" departSpeed="0.00" departDelay="0.00" arrival="434.50" arrivalLane="-92878383#0_1" arrivalPos="603.68" arrivalPosLat="-0.00" arrivalSpeed="8.30" duration="219.80" routeLength="1983.33" waitingTime="0.00" waitingCount="0" stopTime="0.00" timeLoss="31.11" rerouteNo="1" devices="tripinfo_BalibagotoStaRosa_1.1 routing_BalibagotoStaRosa_1.1" vType="jeep" speedFactor="1.00" vaporized=""/>
    <personinfo id="pf_JollibeetoPalengke_1.5" depart="300.00" type="ped" speedFactor="0.83" duration="151.80" waitingTime="0.00" timeLoss="15.53" traveltime="151.80">