<?xml version="1.0" encoding="UTF-8"?>

<!-- generated on 2026-02-21 09:18:55 by Eclipse SUMO sumo Version 1.24.0
<sumoConfiguration xmlns:xsi="http://www.w3.org/2001/XMLSchema-instance" xsi:noNamespaceSchemaLocation="http://sumo.dlr.de/xsd/sumoConfiguration.xsd">

    <input>
        <net-file value="Balibago_traci/network/balibago_signalized.net.xml"/>
        <route-files value="Balibago_traci/demand/flows_training.rou.xml"/>
        <additional-files value="Balibago_traci/additionals/balibago.poly.xml,Balibago_traci/ additionals/balibago.add.xml"/>
    </input>

    <output>
        <tripinfo-output value="Balibago_traci/output_DDPG/jam1_trips.xml"/>
        <statistic-output value="Balibago_traci/output_DDPG/jam1_stats.xml"/>
    </output>

    <time>
        <begin value="0"/>
        <end value="10800"/>
        <step-length value="0.1"/>
    </time>

    <processing>
        <lateral-resolution value="0.1"/>
        <collision.action value="none"/>
        <collision.check-junctions value="false"/>
        <collision.mingap-factor value="0"/>
    </processing>

    <report>
        <no-warnings value="true"/>
    </report>

    <traci_server>
        <remote-port value="8815"/>
    </traci_server>

    <gui_only>
        <delay value="0"/>
    </gui_only>

</sumoConfiguration>
-->

<tripinfos xmlns:xsi="http://www.w3.org/2001/XMLSchema-instance" xsi:noNamespaceSchemaLocation="http://sumo.dlr.de/xsd/tripinfo_file.xsd">
    <tripinfo id="NuvalitoBiñan_1.0" depart="0.70" departLane="-145507700#3_1" departPos="2.30" departPosLat="0.00" departSpeed="29.34" departDelay="0.00" arrival="83.20" arrivalLane="-553887793#0_2" arrivalPos="201.31" arrivalPosLat="0.00" arrivalSpeed="29.28" duration="82.50" routeLength="2096.19" waitingTime="0.00" waitingCount="0" stopTime="0.00" timeLoss="9.84" rerouteNo="1" devices="tripinfo_NuvalitoBiñan_1.0 routing_NuvalitoBiñan_1.0" vType="tricycle" speedFactor="1.06" vaporized=""/>
    <tripinfo id="BalibagotoNuvali_1.0" depart="9.20" departLane="777619905_1" departPos="5.10" departPosLat="0.00" departSpeed="0.00" departDelay="0.00" arrival="85.80" arrivalLane="145507700#3_1" arrivalPos="783.31" arrivalPosLat="-0.00" arrivalSpeed="27.75" duration="76.60" routeLength="1312.87" waitingTime="0.00" waitingCount="0" stopTime="0.00" timeLoss="23.56" rerouteNo="1" devices="tripinfo_BalibagotoNuvali_1.0 routing_BalibagotoNuvali_1.0" vType="jeep" speedFactor="1.00" vaporized=""/>
    <tripinfo id="BiñantoBalibago_1.0" depart="52.30" departLane="553887793#0_1" departPos="2.30" departPosLat="0.00" departSpeed="32.04" departDelay="0.00" arrival="101.40" arrivalLane="-32083237#0_1" arrivalPos="36.46" arrivalPosLat="0.00" arrivalSpeed="15.13" duration="49.10" routeLength="1002.13" waitingTime="0.00" waitingCount="0" stopTime="0.00" timeLoss="14.63" rerouteNo="1" devices="tripinfo_BiñantoBalibago_1.0 routing_BiñantoBalibago_1.0" vType="tricycle" speedFactor="1.15" vaporized=""/>
    <personinfo id="pf_JollibeetoPalengke_1.0" depart="0.00" type="ped" speedFactor="1.06" duration="118.40" waitingTime="0.00" timeLoss="11.57" traveltime="118.40">
        <walk depart="0.00" departPos="10.42" arrival="118.40" arrivalPos="27.04" duration="118.40" routeLength="157.27" timeLoss="11.57" maxSpeed="1.47" waitingTime="0.00"/>
    </personinfo>
    <tripinfo id="BalibagotoCalamba_1.0" depart="40.60" departLane="145507698_1" departPos="2.30" departPosLat="0.00" departSpeed="0.61" departDelay="0.20" arrival="138.20" arrivalLane="-185930141#0_2" arrivalPos="428.88" arrivalPosLat="0.00" arrivalSpeed="30.28" duration="97.60" routeLength="1531.99" waitingTime="0.00" waitingCount="0" stopTime="0.00" timeLoss="19.80" rerouteNo="1" devices="tripinfo_BalibagotoCalamba_1.0 routing_BalibagotoCalamba_1.0" vType="tricycle" speedFactor="1.09" vaporized=""/>
    <personinfo id="pf_PalengketoJollibee_1.0" depart="0.00" type="ped" speedFactor="0.89" duration="147.50" waitingTime="0.00" timeLoss="14.67" traveltime="147.50">
        <walk depart="0.00" departPos="25.00" arrival="147.50" arrivalPos="5.21" duration="147.50" routeLength="164.52" timeLoss="14.67" maxSpeed="1.24" waitingTime="0.00"/>
    </personinfo>
    <tripinfo id="BiñantoNuvali_1.0" depart="70.30" departLane="553887793#0_1" departPos="5.10" departPosLat="0.00" departSpeed="32.88" departDelay="0.00" arrival="150.10" arrivalLane="145507700#3_1" arrivalPos="783.31" arrivalPosLat="-0.00" arrivalSpeed="32.83" duration="79.80" routeLength="2083.73" waitingTime="0.00" waitingCount="0" stopTime="0.00" timeLoss="15.55" rerouteNo="1" devices="tripinfo_BiñantoNuvali_1.0 routing_BiñantoNuvali_1.0" vType="car" speedFactor="1.18" vaporized=""/>
    <tripinfo id="BiñantoBalibago_1.1" depart="90.20" departLane="553887793#0_1" departPos="8.10" departPosLat="0.00" departSpeed="27.78" departDelay="0.00" arrival="153.10" arrivalLane="-32083237#0_1" arrivalPos="36.46" arrivalPosLat="0.00" arrivalSpeed="11.27" duration="62.90" routeLength="996.33" waitingTime="0.00" waitingCount="0" stopTime="0.00" timeLoss="23.32" rerouteNo="1" devices="tripinfo_BiñantoBalibago_1.1 routing_BiñantoBalibago_1.1" vType="jeep" speedFactor="1.00" vaporized=""/>
    <tripinfo id="CalambatoBiñan_1.0" depart="32.70" departLane="185930141#0_1" departPos="8.10" departPosLat="0.00" departSpeed="27.78" departDelay="0.00" arrival="191.40" arrivalLane="-553887793#0_1" arrivalPos="201.31" arrivalPosLat="0.00" arrivalSpeed="27.78" duration="158.70" routeLength="1504.67" waitingTime="78.20" waitingCount="1" stopTime="0.00" timeLoss="104.53" rerouteNo="1" devices="tripinfo_CalambatoBiñan_1.0 routing_CalambatoBiñan_1.0" vType="jeep" speedFactor="1.00" vaporized=""/>
    <tripinfo id="BalibagotoBiñan_1.0" depart="37.20" departLane="145507698_1" departPos="7.55" departPosLat="0.00" departSpeed="0.00" departDelay="0.00" arrival="191.90" arrivalLane="-553887793#0_2" arrivalPos="201.31" arrivalPosLat="0.00" arrivalSpeed="27.74" duration="154.70" routeLength="1682.41" waitingTime="9.50" waitingCount="1" stopTime="0.00" timeLoss="64.76" rerouteNo="1" devices="tripinfo_BalibagotoBiñan_1.0 routing_BalibagotoBiñan_1.0" vType="jeep" speedFactor="1.00" vaporized=""/>
    <personinfo id="pf_JollibeetoPalengke_1.1" depart="60.00" type="ped" speedFactor="0.94" duration="134.10" waitingTime="0.00" timeLoss="13.42" traveltime="134.10">
        <walk depart="60.00" departPos="10.42" arrival="194.10" arrivalPos="27.04" duration="134.10" routeLength="157.27" timeLoss="13.42" maxSpeed="1.30" waitingTime="0.00"/>
    </personinfo>
    <tripinfo id="CalambatoNuvali_1.0" depart="49.20" departLane="185930141#0_2" departPos="5.10" departPosLat="0.00" departSpeed="31.59" departDelay="0.00" arrival="215.40" arrivalLane="145507700#3_1" arrivalPos="783.31" arrivalPosLat="-0.00" arrivalSpeed="31.52" duration="166.20" routeLength="2332.87" waitingTime="67.10" waitingCount="1" stopTime="0.00" timeLoss="90.96" rerouteNo="1" devices="tripinfo_CalambatoNuvali_1.0 routing_CalambatoNuvali_1.0" vType="car" speedFactor="1.14" vaporized=""/>
    <tripinfo id="CalambatoBalibago_1.0" depart="150.70" departLane="185930141#0_2" departPos="2.30" departPosLat="0.00" departSpeed="32.63" departDelay="0.00" arrival="226.20" arrivalLane="89908334_1" arrivalPos="36.84" arrivalPosLat="0.00" arrivalSpeed="11.27" duration="75.50" routeLength="913.97" waitingTime="20.20" waitingCount="1" stopTime="0.00" timeLoss="40.15" rerouteNo="1" devices="tripinfo_CalambatoBalibago_1.0 routing_CalambatoBalibago_1.0" vType="tricycle" speedFactor="1.17" vaporized=""/>
    <personinfo id="pf_PalengketoJollibee_1.1" depart="72.00" type="ped" speedFactor="0.83" duration="158.10" waitingTime="0.00" timeLoss="16.00" traveltime="158.10">
        <walk depart="72.00" departPos="25.00" arrival="230.10" arrivalPos="5.21" duration="158.10" routeLength="164.52" timeLoss="16.00" maxSpeed="1.16" waitingTime="0.00"/>
    </personinfo>
    <personinfo id="pf_JollibeetoSTI_1.0" depart="0.00" type="ped" speedFactor="1.18" duration="230.90" waitingTime="1.10" timeLoss="26.24" traveltime="230.90">
        <walk depart="0.00" departPos="10.42" arrival="230.90" arrivalPos="19.02" duration="230.90" routeLength="335.01" timeLoss="26.24" maxSpeed="1.64" waitingTime="1.10"/>
    </personinfo>
    <personinfo id="pf_JollibeetoPalengke_1.2" depart="120.00" type="ped" speedFactor="1.01" duration="124.70" waitingTime="0.00" timeLoss="12.63" traveltime="124.70">
        <walk depart="120.00" departPos="10.42" arrival="244.70" arrivalPos="27.04" duration="124.70" routeLength="157.27" timeLoss="12.63" maxSpeed="1.40" waitingTime="0.00"/>
    </personinfo>
    <tripinfo id="BalibagotoStaRosa_1.0" depart="55.40" departLane="145507698_1" departPos="2.30" departPosLat="0.00" departSpeed="9.75" departDelay="0.00" arrival="247.20" arrivalLane="-92878383#0_1" arrivalPos="603.68" arrivalPosLat="0.00" arrivalSpeed="8.95" duration="191.80" routeLength="1991.73" waitingTime="0.00" waitingCount="0" stopTime="0.00" timeLoss="16.68" rerouteNo="1" devices="tripinfo_BalibagotoStaRosa_1.0 routing_BalibagotoStaRosa_1.0" vType="tricycle" speedFactor="1.08" vaporized=""/>
    <personinfo id="pf_STItoSakayan_1.0" depart="0.00" type="ped" speedFactor="1.18" duration="253.70" waitingTime="0.00" timeLoss="25.50" traveltime="253.70">
        <walk depart="0.00" departPos="25.00" arrival="253.70" arrivalPos="27.04" duration="253.70" routeLength="373.08" timeLoss="25.50" maxSpeed="1.63" waitingTime="0.00"/>
    </personinfo>
    <tripinfo id="CalambatoBalibago_1.1" depart="194.30" departLane="185930141#0_2" departPos="12.10" departPosLat="0.00" departSpeed="27.78" departDelay="0.00" arrival="258.60" arrivalLane="89908334_1" arrivalPos="36.84" arrivalPosLat="0.00" arrivalSpeed="8.95" duration="64.30" routeLength="904.17" waitingTime="0.00" waitingCount="0" stopTime="0.00" timeLoss="23.11" rerouteNo="1" devices="tripinfo_CalambatoBalibago_1.1 routing_CalambatoBalibago_1.1" vType="bus" speedFactor="1.00" vaporized=""/>
    <tripinfo id="NuvalitoCalamba_1.0" depart="45.30" departLane="-145507700#3_1" departPos="5.10" departPosLat="0.00" departSpeed="23.08" departDelay="0.00" arrival="263.40" arrivalLane="-185930141#0_1" arrivalPos="428.88" arrivalPosLat="0.00" arrivalSpeed="22.97" duration="218.10" routeLength="2321.76" waitingTime="95.10" waitingCount="1" stopTime="0.00" timeLoss="116.08" rerouteNo="1" devices="tripinfo_NuvalitoCalamba_1.0 routing_NuvalitoCalamba_1.0" vType="car" speedFactor="0.83" vaporized=""/>
    <tripinfo id="NuvalitoStaRosa_1.0" depart="56.20" departLane="-145507700#3_2" departPos="5.10" departPosLat="0.00" departSpeed="27.99" departDelay="0.00" arrival="263.40" arrivalLane="-92878383#0_1" arrivalPos="603.68" arrivalPosLat="-0.00" arrivalSpeed="8.33" duration="207.20" routeLength="2600.04" waitingTime="6.20" waitingCount="1" stopTime="0.00" timeLoss="23.94" rerouteNo="1" devices="tripinfo_NuvalitoStaRosa_1.0 routing_NuvalitoStaRosa_1.0" vType="car" speedFactor="1.01" vaporized=""/>
    <tripinfo id="BalibagotoCalamba_1.1" depart="80.90" departLane="145507698_1" departPos="2.30" departPosLat="0.00" departSpeed="9.75" departDelay="0.00" arrival="264.70" arrivalLane="-185930141#0_1" arrivalPos="428.88" arrivalPosLat="0.00" arrivalSpeed="24.85" duration="183.80" routeLength="1531.99" waitingTime="65.60" waitingCount="1" stopTime="0.00" timeLoss="92.44" rerouteNo="1" devices="tripinfo_BalibagotoCalamba_1.1 routing_BalibagotoCalamba_1.1" vType="tricycle" speedFactor="0.93" vaporized=""/>
    <tripinfo id="BiñantoCalamba_1.0" depart="178.20" departLane="553887793#0_1" departPos="7.20" departPosLat="0.00" departSpeed="27.64" departDelay="0.00" arrival="267.60" arrivalLane="-185930141#0_1" arrivalPos="428.88" arrivalPosLat="-0.00" arrivalSpeed="27.59" duration="89.40" routeLength="1505.57" waitingTime="0.00" waitingCount="0" stopTime="0.00" timeLoss="34.92" rerouteNo="1" devices="tripinfo_BiñantoCalamba_1.0 routing_BiñantoCalamba_1.0" vType="truck" speedFactor="0.99" vaporized=""/>
    <tripinfo id="NuvalitoStaRosa_1.1" depart="76.20" departLane="-145507700#3_1" departPos="8.10" departPosLat="0.00" departSpeed="27.78" departDelay="0.00" arrival="279.00" arrivalLane="-92878383#0_1" arrivalPos="603.68" arrivalPosLat="-0.00" arrivalSpeed="8.32" duration="202.80" routeLength="2597.04" waitingTime="0.00" waitingCount="0" stopTime="0.00" timeLoss="18.30" rerouteNo="1" devices="tripinfo_NuvalitoStaRosa_1.1 routing_NuvalitoStaRosa_1.1" vType="jeep" speedFactor="1.00" vaporized=""/>
    <personinfo id="pf_PalengketoJollibee_1.2" depart="144.00" type="ped" speedFactor="0.92" duration="142.90" waitingTime="0.00" timeLoss="14.34" traveltime="142.90">
        <walk depart="144.00" departPos="25.00" arrival="286.90" arrivalPos="5.21" duration="142.90" routeLength="164.52" timeLoss="14.34" maxSpeed="1.28" waitingTime="0.00"/>
    </personinfo>
    <personinfo id="pf_JollibeetoPalengke_1.3" depart="180.00" type="ped" speedFactor="1.08" duration="120.30" waitingTime="3.60" timeLoss="15.71" traveltime="120.30">
        <walk depart="180.00" departPos="10.42" arrival="300.30" arrivalPos="27.04" duration="120.30" routeLength="157.27" timeLoss="15.71" maxSpeed="1.50" waitingTime="3.60"/>
    </personinfo>
    <personinfo id="pf_JollibeetoSTI_1.1" depart="80.00" type="ped" speedFactor="1.15" duration="232.00" waitingTime="0.00" timeLoss="23.05" traveltime="232.00">
        <walk depart="80.00" departPos="10.42" arrival="312.00" arrivalPos="19.02" duration="232.00" routeLength="335.01" timeLoss="23.05" maxSpeed="1.60" waitingTime="0.00"/>
    </personinfo>
    <tripinfo id="BalibagotoBiñan_1.1" depart="185.50" departLane="145507698_1" departPos="7.55" departPosLat="0.00" departSpeed="0.00" departDelay="0.00" arrival="320.70" arrivalLane="-553887793#0_2" arrivalPos="201.31" arrivalPosLat="0.00" arrivalSpeed="27.73" duration="135.20" routeLength="1682.41" waitingTime="2.70" waitingCount="1" stopTime="0.00" timeLoss="45.10" rerouteNo="1" devices="tripinfo_BalibagotoBiñan_1.1 routing_BalibagotoBiñan_1.1" vType="jeep" speedFactor="1.00" vaporized=""/>
    <tripinfo id="StaRosatoBiñan_1.0" depart="38.20" departLane="92878383#0_1" departPos="8.10" departPosLat="0.00" departSpeed="8.33" departDelay="0.00" arrival="336.80" arrivalLane="-553887793#0_1" arrivalPos="201.31" arrivalPosLat="-0.00" arrivalSpeed="27.75" duration="298.60" routeLength="1604.72" waitingTime="142.60" waitingCount="1" stopTime="0.00" timeLoss="158.25" rerouteNo="1" devices="tripinfo_StaRosatoBiñan_1.0 routing_StaRosatoBiñan_1.0" vType="jeep" speedFactor="1.00" vaporized=""/>
    <personinfo id="pf_PalengketoJollibee_1.3" depart="216.00" type="ped" speedFactor="1.09" duration="121.20" waitingTime="0.70" timeLoss="12.62" traveltime="121.20">
        <walk depart="216.00" departPos="25.00" arrival="337.20" arrivalPos="5.21" duration="121.20" routeLength="164.52" timeLoss="12.62" maxSpeed="1.52" waitingTime="0.70"/>
    </personinfo>
    <tripinfo id="StaRosatoBiñan_1.1" depart="116.90" departLane="92878383#0_1" departPos="8.10" departPosLat="0.00" departSpeed="5.25" departDelay="0.90" arrival="338.20" arrivalLane="-553887793#0_1" arrivalPos="201.31" arrivalPosLat="-0.00" arrivalSpeed="27.72" duration="221.30" routeLength="1604.72" waitingTime="61.30" waitingCount="1" stopTime="0.00" timeLoss="80.97" rerouteNo="1" devices="tripinfo_StaRosatoBiñan_1.1 routing_StaRosatoBiñan_1.1" vType="jeep" speedFactor="1.00" vaporized=""/>
    <tripinfo id="BiñantoStaRosa_1.0" depart="24.20" departLane="553887793#0_1" departPos="2.30" departPosLat="0.00" departSpeed="27.78" departDelay="0.00" arrival="341.70" arrivalLane="-92878383#0_1" arrivalPos="603.68" arrivalPosLat="-0.00" arrivalSpeed="8.13" duration="317.50" routeLength="1788.75" waitingTime="156.10" waitingCount="1" stopTime="0.00" timeLoss="163.19" rerouteNo="1" devices="tripinfo_BiñantoStaRosa_1.0 routing_BiñantoStaRosa_1.0" vType="motorcycle" speedFactor="1.00" vaporized=""/>
    <tripinfo id="StaRosatoBalibago_1.0" depart="5.30" departLane="92878383#0_1" departPos="8.10" departPosLat="0.00" departSpeed="8.33" departDelay="0.00" arrival="361.90" arrivalLane="-32083237#0_1" arrivalPos="36.46" arrivalPosLat="0.00" arrivalSpeed="11.54" duration="356.60" routeLength="1358.46" waitingTime="183.80" waitingCount="3" stopTime="0.00" timeLoss="223.20" rerouteNo="1" devices="tripinfo_StaRosatoBalibago_1.0 routing_StaRosatoBalibago_1.0" vType="jeep" speedFactor="1.00" vaporized=""/>
    <personinfo id="pf_JollibeetoPalengke_1.4" depart="240.00" type="ped" speedFactor="1.03" duration="122.50" waitingTime="0.00" timeLoss="12.59" traveltime="122.50">
        <walk depart="240.00" departPos="10.42" arrival="362.50" arrivalPos="27.04" duration="122.50" routeLength="157.27" timeLoss="12.59" maxSpeed="1.43" waitingTime="0.00"/>
    </personinfo>
    <tripinfo id="StaRosatoBalibago_1.1" depart="76.60" departLane="92878383#0_1" departPos="12.10" departPosLat="0.00" departSpeed="8.33" departDelay="0.00" arrival="364.80" arrivalLane="-32083237#0_1" arrivalPos="36.46" arrivalPosLat="0.00" arrivalSpeed="11.28" duration="288.20" routeLength="1354.46" waitingTime="104.30" waitingCount="2" stopTime="0.00" timeLoss="155.34" rerouteNo="1" devices="tripinfo_StaRosatoBalibago_1.1 routing_StaRosatoBalibago_1.1" vType="bus" speedFactor="1.00" vaporized=""/>
    <tripinfo id="StaRosatoBalibago_1.2" depart="115.60" departLane="92878383#0_1" departPos="8.10" departPosLat="0.00" departSpeed="8.33" departDelay="0.00" arrival="368.40" arrivalLane="-32083237#0_1" arrivalPos="36.46" arrivalPosLat="0.00" arrivalSpeed="11.10" duration="252.80" routeLength="1358.46" waitingTime="57.50" waitingCount="2" stopTime="0.00" timeLoss="119.42" rerouteNo="1" devices="tripinfo_StaRosatoBalibago_1.2 routing_StaRosatoBalibago_1.2" vType="jeep" speedFactor="1.00" vaporized=""/>
    <tripinfo id="StaRosatoBalibago_1.3" depart="141.60" departLane="92878383#0_1" departPos="8.10" departPosLat="0.00" departSpeed="8.33" departDelay="0.00" arrival="378.00" arrivalLane="-32083237#0_1" arrivalPos="36.46" arrivalPosLat="0.00" arrivalSpeed="11.19" duration="236.40" routeLength="1358.46" waitingTime="39.70" waitingCount="4" stopTime="0.00" timeLoss="103.09" rerouteNo="1" devices="tripinfo_StaRosatoBalibago_1.3 routing_StaRosatoBalibago_1.3" vType="jeep" speedFactor="1.00" vaporized=""/>
    <tripinfo id="CalambatoBalibago_1.2" depart="238.20" departLane="185930141#0_2" departPos="8.10" departPosLat="0.00" departSpeed="27.78" departDelay="0.00" arrival="379.60" arrivalLane="89908334_1" arrivalPos="36.84" arrivalPosLat="0.00" arrivalSpeed="8.93" duration="141.40" routeLength="908.17" waitingTime="71.00" waitingCount="1" stopTime="0.00" timeLoss="100.17" rerouteNo="1" devices="tripinfo_CalambatoBalibago_1.2 routing_CalambatoBalibago_1.2" vType="jeep" speedFactor="1.00" vaporized=""/>
    <tripinfo id="StaRosatoBalibago_1.4" depart="187.70" departLane="92878383#0_1" departPos="2.30" departPosLat="0.00" departSpeed="9.35" departDelay="0.00" arrival="379.80" arrivalLane="-32083237#0_1" arrivalPos="36.46" arrivalPosLat="0.00" arrivalSpeed="12.81" duration="192.10" routeLength="1364.26" waitingTime="13.20" waitingCount="3" stopTime="0.00" timeLoss="72.64" rerouteNo="1" devices="tripinfo_StaRosatoBalibago_1.4 routing_StaRosatoBalibago_1.4" vType="tricycle" speedFactor="1.12" vaporized=""/>
    <tripinfo id="NuvalitoBiñan_1.1" depart="271.60" departLane="-145507700#3_1" departPos="5.10" departPosLat="0.00" departSpeed="24.93" departDelay="0.00" arrival="382.70" arrivalLane="-553887793#0_2" arrivalPos="201.31" arrivalPosLat="0.00" arrivalSpeed="24.91" duration="111.10" routeLength="2093.39" waitingTime="7.90" waitingCount="2" stopTime="0.00" timeLoss="25.65" rerouteNo="1" devices="tripinfo_NuvalitoBiñan_1.1 routing_NuvalitoBiñan_1.1" vType="car" speedFactor="0.90" vaporized=""/>
    <tripinfo id="StaRosatoBalibago_1.5" depart="224.80" departLane="92878383#0_1" departPos="8.10" departPosLat="0.00" departSpeed="8.33" departDelay="0.00" arrival="382.80" arrivalLane="-32083237#0_1" arrivalPos="36.46" arrivalPosLat="0.00" arrivalSpeed="11.44" duration="158.00" routeLength="1358.46" waitingTime="0.00" waitingCount="0" stopTime="0.00" timeLoss="24.64" rerouteNo="1" devices="tripinfo_StaRosatoBalibago_1.5 routing_StaRosatoBalibago_1.5" vType="jeep" speedFactor="1.00" vaporized=""/>
    <tripinfo id="CalambatoBalibago_1.3" depart="267.10" departLane="185930141#0_2" departPos="8.10" departPosLat="0.00" departSpeed="27.78" departDelay="0.00" arrival="383.80" arrivalLane="89908334_1" arrivalPos="36.84" arrivalPosLat="0.00" arrivalSpeed="8.81" duration="116.70" routeLength="908.17" waitingTime="38.60" waitingCount="1" stopTime="0.00" timeLoss="75.26" rerouteNo="1" devices="tripinfo_CalambatoBalibago_1.3 routing_CalambatoBalibago_1.3" vType="jeep" speedFactor="1.00" vaporized=""/>
    <tripinfo id="StaRosatoNuvali_1.0" depart="193.30" departLane="92878383#0_1" departPos="2.30" departPosLat="0.00" departSpeed="7.78" departDelay="0.00" arrival="386.00" arrivalLane="145507700#3_1" arrivalPos="783.31" arrivalPosLat="0.00" arrivalSpeed="25.92" duration="192.70" routeLength="2448.66" waitingTime="0.00" waitingCount="0" stopTime="0.00" timeLoss="10.07" rerouteNo="1" devices="tripinfo_StaRosatoNuvali_1.0 routing_StaRosatoNuvali_1.0" vType="tricycle" speedFactor="0.93" vaporized=""/>
    <personinfo id="pf_STItoSakayan_1.1" depart="90.00" type="ped" speedFactor="1.00" duration="296.60" waitingTime="0.00" timeLoss="29.13" traveltime="296.60">
        <walk depart="90.00" departPos="25.00" arrival="386.60" arrivalPos="27.04" duration="296.60" routeLength="373.08" timeLoss="29.13" maxSpeed="1.39" waitingTime="0.00"/>
    </personinfo>
    <tripinfo id="StaRosatoCalamba_1.0" depart="77.60" departLane="92878383#0_1" departPos="5.10" departPosLat="0.00" departSpeed="5.24" departDelay="0.10" arrival="389.30" arrivalLane="-185930141#0_1" arrivalPos="428.88" arrivalPosLat="-0.00" arrivalSpeed="32.54" duration="311.70" routeLength="1855.46" waitingTime="129.60" waitingCount="2" stopTime="0.00" timeLoss="184.22" rerouteNo="1" devices="tripinfo_StaRosatoCalamba_1.0 routing_StaRosatoCalamba_1.0" vType="car" speedFactor="1.17" vaporized=""/>
    <tripinfo id="StaRosatoCalamba_1.1" depart="93.90" departLane="92878383#0_1" departPos="7.20" departPosLat="0.00" departSpeed="8.60" departDelay="0.00" arrival="397.90" arrivalLane="-185930141#0_1" arrivalPos="428.88" arrivalPosLat="-0.00" arrivalSpeed="28.69" duration="304.00" routeLength="1853.36" waitingTime="118.90" waitingCount="2" stopTime="0.00" timeLoss="159.28" rerouteNo="1" devices="tripinfo_StaRosatoCalamba_1.1 routing_StaRosatoCalamba_1.1" vType="truck" speedFactor="1.03" vaporized=""/>
    <tripinfo id="StaRosatoCalamba_1.2" depart="95.10" departLane="92878383#0_1" departPos="7.20" departPosLat="0.00" departSpeed="5.66" departDelay="0.40" arrival="398.80" arrivalLane="-185930141#0_2" arrivalPos="428.88" arrivalPosLat="0.00" arrivalSpeed="28.91" duration="303.70" routeLength="1853.36" waitingTime="111.10" waitingCount="2" stopTime="0.00" timeLoss="160.10" rerouteNo="1" devices="tripinfo_StaRosatoCalamba_1.2 routing_StaRosatoCalamba_1.2" vType="truck" speedFactor="1.04" vaporized=""/>
    <tripinfo id="StaRosatoCalamba_1.3" depart="216.90" departLane="92878383#0_1" departPos="7.20" departPosLat="0.00" departSpeed="8.32" departDelay="0.00" arrival="400.20" arrivalLane="-185930141#0_2" arrivalPos="428.88" arrivalPosLat="0.00" arrivalSpeed="27.74" duration="183.30" routeLength="1853.36" waitingTime="0.90" waitingCount="1" stopTime="0.00" timeLoss="33.73" rerouteNo="1" devices="tripinfo_StaRosatoCalamba_1.3 routing_StaRosatoCalamba_1.3" vType="truck" speedFactor="1.00" vaporized=""/>
    <tripinfo id="BalibagotoCalamba_1.2" depart="277.20" departLane="145507698_1" departPos="7.55" departPosLat="0.00" departSpeed="0.00" departDelay="0.00" arrival="401.80" arrivalLane="-185930141#0_2" arrivalPos="428.88" arrivalPosLat="0.00" arrivalSpeed="27.72" duration="124.60" routeLength="1523.59" waitingTime="0.00" waitingCount="0" stopTime="0.00" timeLoss="40.24" rerouteNo="1" devices="tripinfo_BalibagotoCalamba_1.2 routing_BalibagotoCalamba_1.2" vType="jeep" speedFactor="1.00" vaporized=""/>
    <tripinfo id="NuvalitoCalamba_1.1" depart="121.00" departLane="-145507700#3_2" departPos="5.10" departPosLat="0.00" departSpeed="29.22" departDelay="0.00" arrival="403.10" arrivalLane="-185930141#0_2" arrivalPos="428.88" arrivalPosLat="0.00" arrivalSpeed="29.17" duration="282.10" routeLength="2321.76" waitingTime="166.60" waitingCount="1" stopTime="0.00" timeLoss="201.45" rerouteNo="1" devices="tripinfo_NuvalitoCalamba_1.1 routing_NuvalitoCalamba_1.1" vType="car" speedFactor="1.05" vaporized=""/>
    <tripinfo id="NuvalitoCalamba_1.2" depart="127.60" departLane="-145507700#3_1" departPos="12.10" departPosLat="0.00" departSpeed="27.78" departDelay="0.00" arrival="404.70" arrivalLane="-185930141#0_1" arrivalPos="428.88" arrivalPosLat="-0.00" arrivalSpeed="27.73" duration="277.10" routeLength="2314.76" waitingTime="155.70" waitingCount="1" stopTime="0.00" timeLoss="192.51" rerouteNo="1" devices="tripinfo_NuvalitoCalamba_1.2 routing_NuvalitoCalamba_1.2" vType="bus" speedFactor="1.00" vaporized=""/>
    <tripinfo id="BiñantoBalibago_1.2" depart="333.00" departLane="553887793#0_1" departPos="8.10" departPosLat="0.00" departSpeed="27.78" departDelay="0.00" arrival="407.10" arrivalLane="-32083237#0_1" arrivalPos="36.46" arrivalPosLat="0.00" arrivalSpeed="11.16" duration="74.10" routeLength="996.33" waitingTime="3.70" waitingCount="2" stopTime="0.00" timeLoss="34.51" rerouteNo="1" devices="tripinfo_BiñantoBalibago_1.2 routing_BiñantoBalibago_1.2" vType="jeep" speedFactor="1.00" vaporized=""/>
    <tripinfo id="BiñantoStaRosa_1.1" depart="250.00" departLane="553887793#0_2" departPos="8.10" departPosLat="0.00" departSpeed="27.78" departDelay="0.00" arrival="407.20" arrivalLane="-92878383#0_1" arrivalPos="603.68" arrivalPosLat="-0.00" arrivalSpeed="8.32" duration="157.20" routeLength="1782.95" waitingTime="0.00" waitingCount="0" stopTime="0.00" timeLoss="3.03" rerouteNo="1" devices="tripinfo_BiñantoStaRosa_1.1 routing_BiñantoStaRosa_1.1" vType="jeep" speedFactor="1.00" vaporized=""/>
    <personinfo id="pf_JollibeetoTarget_1.0" depart="0.00" type="ped" speedFactor="1.10" duration="408.60" waitingTime="2.10" timeLoss="43.91" traveltime="408.60">
        <walk depart="0.00" departPos="10.42" arrival="408.60" arrivalPos="16.04" duration="408.60" routeLength="555.05" timeLoss="43.91" maxSpeed="1.52" waitingTime="2.10"/>
    </personinfo>
    <tripinfo id="BalibagotoNuvali_1.1" depart="337.00" departLane="777619905_1" departPos="5.10" departPosLat="0.00" departSpeed="0.00" departDelay="0.00" arrival="413.90" arrivalLane="145507700#3_1" arrivalPos="783.31" arrivalPosLat="-0.00" arrivalSpeed="27.72" duration="76.90" routeLength="1312.87" waitingTime="0.00" waitingCount="0" stopTime="0.00" timeLoss="23.78" rerouteNo="1" devices="tripinfo_BalibagotoNuvali_1.1 routing_BalibagotoNuvali_1.1" vType="jeep" speedFactor="1.00" vaporized=""/>
    <personinfo id="pf_PalengketoJollibee_1.4" depart="288.00" type="ped" speedFactor="1.06" duration="126.50" waitingTime="2.20" timeLoss="14.41" traveltime="126.50">
        <walk depart="288.00" departPos="25.00" arrival="414.50" arrivalPos="5.21" duration="126.50" routeLength="164.52" timeLoss="14.41" maxSpeed="1.47" waitingTime="2.20"/>
    </personinfo>
    <tripinfo id="NuvalitoBiñan_1.2" depart="341.80" departLane="-145507700#3_1" departPos="2.30" departPosLat="0.00" departSpeed="33.13" departDelay="0.00" arrival="417.20" arrivalLane="-553887793#0_2" arrivalPos="201.31" arrivalPosLat="0.00" arrivalSpeed="33.04" duration="75.40" routeLength="2096.19" waitingTime="0.00" waitingCount="0" stopTime="0.00" timeLoss="11.08" rerouteNo="1" devices="tripinfo_NuvalitoBiñan_1.2 routing_NuvalitoBiñan_1.2" vType="tricycle" speedFactor="1.19" vaporized=""/>
    <tripinfo id="NuvalitoCalamba_1.3" depart="205.50" departLane="-145507700#3_1" departPos="8.10" departPosLat="0.00" departSpeed="27.78" departDelay="0.00" arrival="420.70" arrivalLane="-185930141#0_1" arrivalPos="428.88" arrivalPosLat="0.00" arrivalSpeed="27.73" duration="215.20" routeLength="2318.76" waitingTime="81.70" waitingCount="1" stopTime="0.00" timeLoss="130.57" rerouteNo="1" devices="tripinfo_NuvalitoCalamba_1.3 routing_NuvalitoCalamba_1.3" vType="jeep" speedFactor="1.00" vaporized=""/>
    <personinfo id="pf_JollibeetoSTI_1.2" depart="160.00" type="ped" speedFactor="1.01" duration="266.20" waitingTime="0.00" timeLoss="26.24" traveltime="266.20">
        <walk depart="160.00" departPos="10.42" arrival="426.20" arrivalPos="19.02" duration="266.20" routeLength="335.01" timeLoss="26.24" maxSpeed="1.40" waitingTime="0.00"/>
    </personinfo>
    <personinfo id="pf_TargettoSakayan_1.0" depart="0.00" type="ped" speedFactor="1.12" duration="426.20" waitingTime="0.20" timeLoss="42.83" traveltime="426.20">
        <walk depart="0.00" departPos="25.00" arrival="426.20" arrivalPos="27.04" duration="426.20" routeLength="596.09" timeLoss="42.83" maxSpeed="1.55" waitingTime="0.20"/>
    </personinfo>
    <tripinfo id="BiñantoNuvali_1.1" depart="318.30" departLane="553887793#0_1" departPos="12.10" departPosLat="0.00" departSpeed="27.78" departDelay="0.00" arrival="427.60" arrivalLane="145507700#3_1" arrivalPos="783.31" arrivalPosLat="-0.00" arrivalSpeed="27.76" duration="109.30" routeLength="2076.73" waitingTime="6.50" waitingCount="1" stopTime="0.00" timeLoss="33.48" rerouteNo="1" devices="tripinfo_BiñantoNuvali_1.1 routing_BiñantoNuvali_1.1" vType="bus" speedFactor="1.00" vaporized=""/>
    <personinfo id="pf_JollibeetoPalengke_1.5" depart="300.00" type="ped" speedFactor="0.83" duration="151.30" waitingTime="0.00" timeLoss="15.03" traveltime="151.30">