<?xml version="1.0" encoding="UTF-8"?>

<!-- generated on 2026-02-21 08:21:18 by Eclipse SUMO sumo Version 1.24.0
<sumoConfiguration xmlns:xsi="http://www.w3.org/2001/XMLSchema-instance" xsi:noNamespaceSchemaLocation="http://sumo.dlr.de/xsd/sumoConfiguration.xsd">

    <input>
        <net-file value="Balibago_traci/network/balibago_signalized.net.xml"/>
        <route-files value="Balibago_traci/demand/flows_jam_traffic.rou.xml"/>
        <additional-files value="Balibago_traci/additionals/balibago.poly.xml,Balibago_traci/ additionals/balibago.add.xml"/>
    </input>

    <output>
        <tripinfo-output value="Balibago_traci/output_DDPG/jam1_trips.xml"/>
        <statistic-output value="Balibago_traci/output_DDPG/jam1_stats.xml"/>
    </output>

    <time>
        <begin value="0"/>
        <end value="10800"/>
        <step-length value="0.1"/>
    </time>

    <processing>
        <lateral-resolution value="0.1"/>
        <collision.action value="none"/>
        <collision.check-junctions value="false"/>
        <collision.mingap-factor value="0"/>
    </processing>

    <report>
        <no-warnings value="true"/>
    </report>

    <traci_server>
        <remote-port value="8814"/>
    </traci_server>

    <gui_only>
        <delay value="0"/>
    </gui_only>

</sumoConfiguration>
-->

<tripinfos xmlns:xsi="http://www.w3.org/2001/XMLSchema-instance" xsi:noNamespaceSchemaLocation="http://sumo.dlr.de/xsd/tripinfo_file.xsd">
    <tripinfo id="BiñantoBalibago.0" depart="5.20" departLane="553887793#0_1" departPos="8.10" departPosLat="0.00" departSpeed="27.78" departDelay="0.00" arrival="77.70" arrivalLane="-32083237#0_1" arrivalPos="36.46" arrivalPosLat="0.00" arrivalSpeed="11.12" duration="72.50" routeLength="996.33" waitingTime="3.90" waitingCount="1" stopTime="0.00" timeLoss="32.96" rerouteNo="1" devices="tripinfo_BiñantoBalibago.0 routing_BiñantoBalibago.0" vType="jeep" speedFactor="1.00" vaporized=""/>
    <tripinfo id="BalibagotoNuvali.0" depart="9.20" departLane="777619905_1" departPos="5.10" departPosLat="0.00" departSpeed="0.00" departDelay="0.00" arrival="86.80" arrivalLane="145507700#3_1" arrivalPos="783.31" arrivalPosLat="-0.00" arrivalSpeed="27.74" duration="77.60" routeLength="1312.87" waitingTime="0.00" waitingCount="0" stopTime="0.00" timeLoss="24.55" rerouteNo="1" devices="tripinfo_BalibagotoNuvali.0 routing_BalibagotoNuvali.0" vType="bus" speedFactor="1.00" vaporized=""/>
    <tripinfo id="NuvalitoBiñan.0" depart="0.70" departLane="-145507700#3_1" departPos="5.10" departPosLat="0.00" departSpeed="26.20" departDelay="0.00" arrival="95.60" arrivalLane="-553887793#0_2" arrivalPos="201.31" arrivalPosLat="0.00" arrivalSpeed="26.16" duration="94.90" routeLength="2093.39" waitingTime="0.00" waitingCount="0" stopTime="0.00" timeLoss="13.60" rerouteNo="1" devices="tripinfo_NuvalitoBiñan.0 routing_NuvalitoBiñan.0" vType="car" speedFactor="0.94" vaporized=""/>
    <tripinfo id="NuvalitoBiñan.1" depart="27.90" departLane="-145507700#3_2" departPos="2.30" departPosLat="0.00" departSpeed="25.55" departDelay="0.00" arrival="115.20" arrivalLane="-553887793#0_1" arrivalPos="201.31" arrivalPosLat="-0.00" arrivalSpeed="25.49" duration="87.30" routeLength="2096.19" waitingTime="0.00" waitingCount="0" stopTime="0.00" timeLoss="3.79" rerouteNo="1" devices="tripinfo_NuvalitoBiñan.1 routing_NuvalitoBiñan.1" vType="motorcycle" speedFactor="0.92" vaporized=""/>
    <personinfo id="JollibeetoPalengke.0" depart="0.00" type="ped" speedFactor="1.06" duration="118.40" waitingTime="0.00" timeLoss="11.57" traveltime="118.40">
        <walk depart="0.00" departPos="10.42" arrival="118.40" arrivalPos="27.04" duration="118.40" routeLength="157.27" timeLoss="11.57" maxSpeed="1.47" waitingTime="0.00"/>
    </personinfo>
    <tripinfo id="NuvalitoBiñan.3" depart="32.40" departLane="-145507700#3_1" departPos="5.10" departPosLat="0.00" departSpeed="28.53" departDelay="0.00" arrival="120.00" arrivalLane="-553887793#0_2" arrivalPos="201.31" arrivalPosLat="0.00" arrivalSpeed="28.45" duration="87.60" routeLength="2093.39" waitingTime="0.00" waitingCount="0" stopTime="0.00" timeLoss="12.97" rerouteNo="1" devices="tripinfo_NuvalitoBiñan.3 routing_NuvalitoBiñan.3" vType="car" speedFactor="1.03" vaporized=""/>
    <tripinfo id="CalambatoBalibago.0" depart="31.10" departLane="185930141#0_2" departPos="8.10" departPosLat="0.00" departSpeed="27.78" departDelay="0.00" arrival="121.40" arrivalLane="89908334_1" arrivalPos="36.84" arrivalPosLat="0.00" arrivalSpeed="8.46" duration="90.30" routeLength="908.17" waitingTime="22.80" waitingCount="1" stopTime="0.00" timeLoss="48.95" rerouteNo="1" devices="tripinfo_CalambatoBalibago.0 routing_CalambatoBalibago.0" vType="jeep" speedFactor="1.00" vaporized=""/>
    <tripinfo id="NuvalitoBiñan.2" depart="28.80" departLane="-145507700#3_2" departPos="5.10" departPosLat="0.00" departSpeed="16.54" departDelay="0.00" arrival="123.30" arrivalLane="-553887793#0_2" arrivalPos="201.31" arrivalPosLat="0.00" arrivalSpeed="27.81" duration="94.50" routeLength="2093.39" waitingTime="0.00" waitingCount="0" stopTime="0.00" timeLoss="18.10" rerouteNo="1" devices="tripinfo_NuvalitoBiñan.2 routing_NuvalitoBiñan.2" vType="car" speedFactor="1.00" vaporized=""/>
    <tripinfo id="BalibagotoNuvali.2" depart="44.20" departLane="777619905_1" departPos="2.30" departPosLat="0.00" departSpeed="5.50" departDelay="0.00" arrival="131.50" arrivalLane="145507700#3_2" arrivalPos="783.31" arrivalPosLat="0.00" arrivalSpeed="32.25" duration="87.30" routeLength="1315.67" waitingTime="5.40" waitingCount="1" stopTime="0.00" timeLoss="41.50" rerouteNo="1" devices="tripinfo_BalibagotoNuvali.2 routing_BalibagotoNuvali.2" vType="tricycle" speedFactor="1.16" vaporized=""/>
    <personinfo id="PalengketoJollibee.0" depart="0.00" type="ped" speedFactor="1.09" duration="133.60" waitingTime="13.30" timeLoss="25.38" traveltime="133.60">
        <walk depart="0.00" departPos="25.00" arrival="133.60" arrivalPos="5.21" duration="133.60" routeLength="164.52" timeLoss="25.38" maxSpeed="1.52" waitingTime="13.30"/>
    </personinfo>
    <tripinfo id="BalibagotoNuvali.1" depart="30.10" departLane="777619905_1" departPos="5.10" departPosLat="0.00" departSpeed="0.00" departDelay="0.00" arrival="133.70" arrivalLane="145507700#3_1" arrivalPos="783.31" arrivalPosLat="-0.00" arrivalSpeed="27.75" duration="103.60" routeLength="1312.87" waitingTime="3.10" waitingCount="3" stopTime="0.00" timeLoss="50.54" rerouteNo="1" devices="tripinfo_BalibagotoNuvali.1 routing_BalibagotoNuvali.1" vType="jeep" speedFactor="1.00" vaporized=""/>
    <personinfo id="PalengketoJollibee.1" depart="15.00" type="ped" speedFactor="1.07" duration="123.60" waitingTime="0.60" timeLoss="12.71" traveltime="123.60">
        <walk depart="15.00" departPos="25.00" arrival="138.60" arrivalPos="5.21" duration="123.60" routeLength="164.52" timeLoss="12.71" maxSpeed="1.48" waitingTime="0.60"/>
    </personinfo>
    <tripinfo id="NuvalitoBalibago.0" depart="8.30" departLane="-145507700#3_1" departPos="12.10" departPosLat="0.00" departSpeed="27.78" departDelay="0.00" arrival="148.90" arrivalLane="32083201#1_1" arrivalPos="58.53" arrivalPosLat="0.00" arrivalSpeed="13.86" duration="140.60" routeLength="2051.09" waitingTime="0.00" waitingCount="0" stopTime="0.00" timeLoss="34.87" rerouteNo="1" devices="tripinfo_NuvalitoBalibago.0 routing_NuvalitoBalibago.0" vType="bus" speedFactor="1.00" vaporized=""/>
    <personinfo id="JollibeetoPalengke.1" depart="15.00" type="ped" speedFactor="0.94" duration="134.20" waitingTime="0.00" timeLoss="13.52" traveltime="134.20">
        <walk depart="15.00" departPos="10.42" arrival="149.20" arrivalPos="27.04" duration="134.20" routeLength="157.27" timeLoss="13.52" maxSpeed="1.30" waitingTime="0.00"/>
    </personinfo>
    <tripinfo id="BalibagotoNuvali.3" depart="73.10" departLane="777619905_1" departPos="5.10" departPosLat="0.00" departSpeed="0.00" departDelay="0.00" arrival="153.60" arrivalLane="145507700#3_1" arrivalPos="783.31" arrivalPosLat="-0.00" arrivalSpeed="27.73" duration="80.50" routeLength="1312.87" waitingTime="0.00" waitingCount="0" stopTime="0.00" timeLoss="27.33" rerouteNo="1" devices="tripinfo_BalibagotoNuvali.3 routing_BalibagotoNuvali.3" vType="jeep" speedFactor="1.00" vaporized=""/>
    <personinfo id="JollibeetoPalengke.2" depart="30.00" type="ped" speedFactor="1.01" duration="124.30" waitingTime="0.00" timeLoss="12.23" traveltime="124.30">
        <walk depart="30.00" departPos="10.42" arrival="154.30" arrivalPos="27.04" duration="124.30" routeLength="157.27" timeLoss="12.23" maxSpeed="1.40" waitingTime="0.00"/>
    </personinfo>
    <tripinfo id="NuvalitoBiñan.4" depart="67.30" departLane="-145507700#3_1" departPos="5.10" departPosLat="0.00" departSpeed="27.50" departDelay="0.00" arrival="155.80" arrivalLane="-553887793#0_2" arrivalPos="201.31" arrivalPosLat="0.00" arrivalSpeed="27.41" duration="88.50" routeLength="2093.39" waitingTime="0.00" waitingCount="0" stopTime="0.00" timeLoss="10.95" rerouteNo="1" devices="tripinfo_NuvalitoBiñan.4 routing_NuvalitoBiñan.4" vType="car" speedFactor="0.99" vaporized=""/>
    <personinfo id="PalengketoJollibee.3" depart="45.00" type="ped" speedFactor="1.23" duration="113.50" waitingTime="4.80" timeLoss="17.08" traveltime="113.50">
        <walk depart="45.00" departPos="25.00" arrival="158.50" arrivalPos="5.21" duration="113.50" routeLength="164.52" timeLoss="17.08" maxSpeed="1.71" waitingTime="4.80"/>
    </personinfo>
    <personinfo id="JollibeetoPalengke.3" depart="45.00" type="ped" speedFactor="1.08" duration="116.10" waitingTime="0.20" timeLoss="11.51" traveltime="116.10">
        <walk depart="45.00" departPos="10.42" arrival="161.10" arrivalPos="27.04" duration="116.10" routeLength="157.27" timeLoss="11.51" maxSpeed="1.50" waitingTime="0.20"/>
    </personinfo>
    <tripinfo id="BalibagotoNuvali.4" depart="81.90" departLane="777619905_1" departPos="5.10" departPosLat="0.00" departSpeed="0.00" departDelay="0.00" arrival="161.30" arrivalLane="145507700#3_1" arrivalPos="783.31" arrivalPosLat="-0.00" arrivalSpeed="27.76" duration="79.40" routeLength="1312.87" waitingTime="0.00" waitingCount="0" stopTime="0.00" timeLoss="26.35" rerouteNo="1" devices="tripinfo_BalibagotoNuvali.4 routing_BalibagotoNuvali.4" vType="jeep" speedFactor="1.00" vaporized=""/>
    <tripinfo id="NuvalitoBalibago.1" depart="28.30" departLane="-145507700#3_1" departPos="8.10" departPosLat="0.00" departSpeed="27.78" departDelay="0.00" arrival="168.80" arrivalLane="32083201#1_1" arrivalPos="58.53" arrivalPosLat="0.00" arrivalSpeed="13.85" duration="140.50" routeLength="2055.09" waitingTime="0.00" waitingCount="0" stopTime="0.00" timeLoss="34.57" rerouteNo="1" devices="tripinfo_NuvalitoBalibago.1 routing_NuvalitoBalibago.1" vType="jeep" speedFactor="1.00" vaporized=""/>
    <personinfo id="JollibeetoPalengke.4" depart="60.00" type="ped" speedFactor="1.03" duration="121.90" waitingTime="0.00" timeLoss="11.99" traveltime="121.90">
        <walk depart="60.00" departPos="10.42" arrival="181.90" arrivalPos="27.04" duration="121.90" routeLength="157.27" timeLoss="11.99" maxSpeed="1.43" waitingTime="0.00"/>
    </personinfo>
    <tripinfo id="CalambatoStaRosa.0" depart="28.70" departLane="185930141#0_1" departPos="5.10" departPosLat="0.00" departSpeed="28.46" departDelay="0.00" arrival="182.90" arrivalLane="-92878383#0_1" arrivalPos="603.68" arrivalPosLat="0.00" arrivalSpeed="8.51" duration="154.20" routeLength="1808.59" waitingTime="0.00" waitingCount="0" stopTime="0.00" timeLoss="4.88" rerouteNo="1" devices="tripinfo_CalambatoStaRosa.0 routing_CalambatoStaRosa.0" vType="car" speedFactor="1.02" vaporized=""/>
    <personinfo id="PalengketoJollibee.4" depart="60.00" type="ped" speedFactor="1.15" duration="127.80" waitingTime="5.20" timeLoss="25.20" traveltime="127.80">
        <walk depart="60.00" departPos="25.00" arrival="187.80" arrivalPos="5.21" duration="127.80" routeLength="164.52" timeLoss="25.20" maxSpeed="1.60" waitingTime="5.20"/>
    </personinfo>
    <personinfo id="PalengketoJollibee.2" depart="30.00" type="ped" speedFactor="0.85" duration="163.30" waitingTime="8.00" timeLoss="24.10" traveltime="163.30">
        <walk depart="30.00" departPos="25.00" arrival="193.30" arrivalPos="5.21" duration="163.30" routeLength="164.52" timeLoss="24.10" maxSpeed="1.18" waitingTime="8.00"/>
    </personinfo>
    <tripinfo id="BalibagotoNuvali.5" depart="124.10" departLane="777619905_1" departPos="2.30" departPosLat="0.00" departSpeed="5.50" departDelay="0.00" arrival="196.00" arrivalLane="145507700#3_2" arrivalPos="783.31" arrivalPosLat="0.00" arrivalSpeed="32.69" duration="71.90" routeLength="1315.67" waitingTime="6.50" waitingCount="1" stopTime="0.00" timeLoss="26.68" rerouteNo="1" devices="tripinfo_BalibagotoNuvali.5 routing_BalibagotoNuvali.5" vType="tricycle" speedFactor="1.18" vaporized=""/>
    <tripinfo id="BalibagotoNuvali.6" depart="138.80" departLane="777619905_1" departPos="2.30" departPosLat="0.00" departSpeed="5.50" departDelay="0.00" arrival="206.30" arrivalLane="145507700#3_1" arrivalPos="783.31" arrivalPosLat="1.15" arrivalSpeed="29.08" duration="67.50" routeLength="1315.67" waitingTime="0.00" waitingCount="0" stopTime="0.00" timeLoss="16.63" rerouteNo="1" devices="tripinfo_BalibagotoNuvali.6 routing_BalibagotoNuvali.6" vType="tricycle" speedFactor="1.05" vaporized=""/>
    <tripinfo id="CalambatoBiñan.0" depart="32.70" departLane="185930141#0_1" departPos="8.10" departPosLat="0.00" departSpeed="27.78" departDelay="0.00" arrival="208.00" arrivalLane="-553887793#0_1" arrivalPos="201.31" arrivalPosLat="0.00" arrivalSpeed="27.73" duration="175.30" routeLength="1504.67" waitingTime="91.90" waitingCount="1" stopTime="0.00" timeLoss="121.11" rerouteNo="1" devices="tripinfo_CalambatoBiñan.0 routing_CalambatoBiñan.0" vType="jeep" speedFactor="1.00" vaporized=""/>
    <tripinfo id="BalibagotoBiñan.1" depart="27.90" departLane="145507698_1" departPos="7.55" departPosLat="0.00" departSpeed="0.00" departDelay="2.30" arrival="209.40" arrivalLane="-553887793#0_1" arrivalPos="201.31" arrivalPosLat="-0.00" arrivalSpeed="27.75" duration="181.50" routeLength="1682.41" waitingTime="26.20" waitingCount="3" stopTime="0.00" timeLoss="91.37" rerouteNo="1" devices="tripinfo_BalibagotoBiñan.1 routing_BalibagotoBiñan.1" vType="jeep" speedFactor="1.00" vaporized=""/>
    <tripinfo id="NuvalitoBalibago.2" depart="68.00" departLane="-145507700#3_1" departPos="8.10" departPosLat="0.00" departSpeed="23.44" departDelay="0.00" arrival="210.20" arrivalLane="32083201#1_1" arrivalPos="58.53" arrivalPosLat="0.00" arrivalSpeed="13.85" duration="142.20" routeLength="2055.09" waitingTime="0.00" waitingCount="0" stopTime="0.00" timeLoss="36.37" rerouteNo="1" devices="tripinfo_NuvalitoBalibago.2 routing_NuvalitoBalibago.2" vType="jeep" speedFactor="1.00" vaporized=""/>
    <tripinfo id="BalibagotoBiñan.2" depart="37.20" departLane="145507698_1" departPos="7.55" departPosLat="0.00" departSpeed="0.00" departDelay="0.00" arrival="210.70" arrivalLane="-553887793#0_1" arrivalPos="201.31" arrivalPosLat="-0.00" arrivalSpeed="27.78" duration="173.50" routeLength="1682.41" waitingTime="14.60" waitingCount="2" stopTime="0.00" timeLoss="83.36" rerouteNo="1" devices="tripinfo_BalibagotoBiñan.2 routing_BalibagotoBiñan.2" vType="jeep" speedFactor="1.00" vaporized=""/>
    <personinfo id="JollibeetoPalengke.6" depart="90.00" type="ped" speedFactor="1.05" duration="121.30" waitingTime="0.70" timeLoss="13.02" traveltime="121.30">
        <walk depart="90.00" departPos="10.42" arrival="211.30" arrivalPos="27.04" duration="121.30" routeLength="157.27" timeLoss="13.02" maxSpeed="1.45" waitingTime="0.70"/>
    </personinfo>
    <tripinfo id="BalibagotoBiñan.0" depart="13.70" departLane="145507698_1" departPos="7.55" departPosLat="0.00" departSpeed="0.00" departDelay="0.00" arrival="211.40" arrivalLane="-553887793#0_2" arrivalPos="201.31" arrivalPosLat="0.00" arrivalSpeed="27.78" duration="197.70" routeLength="1685.56" waitingTime="53.00" waitingCount="1" stopTime="0.00" timeLoss="107.20" rerouteNo="1" devices="tripinfo_BalibagotoBiñan.0 routing_BalibagotoBiñan.0" vType="bus" speedFactor="1.00" vaporized=""/>
    <tripinfo id="BalibagotoBiñan.3" depart="49.70" departLane="145507698_1" departPos="7.55" departPosLat="0.00" departSpeed="0.00" departDelay="7.50" arrival="213.10" arrivalLane="-553887793#0_2" arrivalPos="201.31" arrivalPosLat="0.00" arrivalSpeed="27.76" duration="163.40" routeLength="1685.56" waitingTime="18.50" waitingCount="2" stopTime="0.00" timeLoss="72.87" rerouteNo="1" devices="tripinfo_BalibagotoBiñan.3 routing_BalibagotoBiñan.3" vType="bus" speedFactor="1.00" vaporized=""/>
    <tripinfo id="BalibagotoBiñan.4" depart="82.90" departLane="145507698_1" departPos="2.30" departPosLat="0.00" departSpeed="0.69" departDelay="17.30" arrival="214.60" arrivalLane="-553887793#0_2" arrivalPos="201.31" arrivalPosLat="0.00" arrivalSpeed="29.96" duration="131.70" routeLength="1687.66" waitingTime="0.00" waitingCount="0" stopTime="0.00" timeLoss="49.56" rerouteNo="1" devices="tripinfo_BalibagotoBiñan.4 routing_BalibagotoBiñan.4" vType="tricycle" speedFactor="1.10" vaporized=""/>
    <tripinfo id="NuvalitoBalibago.3" depart="71.30" departLane="-145507700#3_1" departPos="8.10" departPosLat="0.00" departSpeed="27.78" departDelay="0.00" arrival="214.70" arrivalLane="32083201#1_1" arrivalPos="58.53" arrivalPosLat="0.00" arrivalSpeed="13.83" duration="143.40" routeLength="2055.09" waitingTime="0.00" waitingCount="0" stopTime="0.00" timeLoss="37.36" rerouteNo="1" devices="tripinfo_NuvalitoBalibago.3 routing_NuvalitoBalibago.3" vType="jeep" speedFactor="1.00" vaporized=""/>
    <tripinfo id="BalibagotoBiñan.5" depart="85.50" departLane="145507698_1" departPos="7.55" departPosLat="0.00" departSpeed="0.00" departDelay="18.80" arrival="217.10" arrivalLane="-553887793#0_1" arrivalPos="201.31" arrivalPosLat="-0.00" arrivalSpeed="27.74" duration="131.60" routeLength="1685.56" waitingTime="0.40" waitingCount="1" stopTime="0.00" timeLoss="41.01" rerouteNo="1" devices="tripinfo_BalibagotoBiñan.5 routing_BalibagotoBiñan.5" vType="bus" speedFactor="1.00" vaporized=""/>
    <personinfo id="PalengketoJollibee.5" depart="75.00" type="ped" speedFactor="1.05" duration="142.90" waitingTime="17.10" timeLoss="29.71" traveltime="142.90">
        <walk depart="75.00" departPos="25.00" arrival="217.90" arrivalPos="5.21" duration="142.90" routeLength="164.52" timeLoss="29.71" maxSpeed="1.45" waitingTime="17.10"/>
    </personinfo>
    <personinfo id="PalengketoJollibee.6" depart="90.00" type="ped" speedFactor="1.09" duration="128.30" waitingTime="6.80" timeLoss="19.49" traveltime="128.30">
        <walk depart="90.00" departPos="25.00" arrival="218.30" arrivalPos="5.21" duration="128.30" routeLength="164.52" timeLoss="19.49" maxSpeed="1.51" waitingTime="6.80"/>
    </personinfo>
    <tripinfo id="CalambatoStaRosa.1" depart="75.40" departLane="185930141#0_1" departPos="2.30" departPosLat="0.00" departSpeed="30.95" departDelay="0.00" arrival="219.70" arrivalLane="-92878383#0_1" arrivalPos="603.68" arrivalPosLat="0.00" arrivalSpeed="9.22" duration="144.30" routeLength="1811.39" waitingTime="0.00" waitingCount="0" stopTime="0.00" timeLoss="7.00" rerouteNo="1" devices="tripinfo_CalambatoStaRosa.1 routing_CalambatoStaRosa.1" vType="tricycle" speedFactor="1.11" vaporized=""/>
    <personinfo id="PalengketoJollibee.7" depart="105.00" type="ped" speedFactor="1.11" duration="118.90" waitingTime="0.40" timeLoss="12.61" traveltime="118.90">
        <walk depart="105.00" departPos="25.00" arrival="223.90" arrivalPos="5.21" duration="118.90" routeLength="164.52" timeLoss="12.61" maxSpeed="1.55" waitingTime="0.40"/>
    </personinfo>
    <tripinfo id="NuvalitoBalibago.4" depart="85.20" departLane="-145507700#3_1" departPos="8.10" departPosLat="0.00" departSpeed="27.78" departDelay="0.00" arrival="226.00" arrivalLane="32083201#1_1" arrivalPos="58.53" arrivalPosLat="0.00" arrivalSpeed="13.87" duration="140.80" routeLength="2055.09" waitingTime="0.00" waitingCount="0" stopTime="0.00" timeLoss="34.98" rerouteNo="1" devices="tripinfo_NuvalitoBalibago.4 routing_NuvalitoBalibago.4" vType="jeep" speedFactor="1.00" vaporized=""/>
    <personinfo id="JollibeetoPalengke.5" depart="75.00" type="ped" speedFactor="0.83" duration="151.30" waitingTime="0.30" timeLoss="15.03" traveltime="151.30">
        <walk depart="75.00" departPos="10.42" arrival="226.30" arrivalPos="27.04" duration="151.30" routeLength="157.27" timeLoss="15.03" maxSpeed="1.15" waitingTime="0.30"/>
    </personinfo>
    <tripinfo id="BalibagotoNuvali.7" depart="139.60" departLane="777619905_1" departPos="5.10" departPosLat="0.00" departSpeed="0.00" departDelay="0.30" arrival="228.40" arrivalLane="145507700#3_1" arrivalPos="783.31" arrivalPosLat="-0.00" arrivalSpeed="27.75" duration="88.80" routeLength="1312.87" waitingTime="0.40" waitingCount="1" stopTime="0.00" timeLoss="35.62" rerouteNo="1" devices="tripinfo_BalibagotoNuvali.7 routing_BalibagotoNuvali.7" vType="bus" speedFactor="1.00" vaporized=""/>
    <tripinfo id="NuvalitoBalibago.5" depart="88.10" departLane="-145507700#3_1" departPos="8.10" departPosLat="0.00" departSpeed="27.78" departDelay="0.00" arrival="230.50" arrivalLane="32083201#1_1" arrivalPos="58.53" arrivalPosLat="0.00" arrivalSpeed="13.88" duration="142.40" routeLength="2055.09" waitingTime="0.00" waitingCount="0" stopTime="0.00" timeLoss="36.52" rerouteNo="1" devices="tripinfo_NuvalitoBalibago.5 routing_NuvalitoBalibago.5" vType="jeep" speedFactor="1.00" vaporized=""/>
    <tripinfo id="BalibagotoNuvali.8" depart="156.30" departLane="777619905_1" departPos="5.10" departPosLat="0.00" departSpeed="0.00" departDelay="0.00" arrival="236.70" arrivalLane="145507700#3_1" arrivalPos="783.31" arrivalPosLat="-0.00" arrivalSpeed="27.73" duration="80.40" routeLength="1312.87" waitingTime="0.00" waitingCount="0" stopTime="0.00" timeLoss="27.37" rerouteNo="1" devices="tripinfo_BalibagotoNuvali.8 routing_BalibagotoNuvali.8" vType="bus" speedFactor="1.00" vaporized=""/>
    <personinfo id="PalengketoSTI.0" depart="0.00" type="ped" speedFactor="1.14" duration="239.20" waitingTime="2.80" timeLoss="27.72" traveltime="239.20">
        <walk depart="0.00" departPos="10.42" arrival="239.20" arrivalPos="19.02" duration="239.20" routeLength="335.01" timeLoss="27.72" maxSpeed="1.58" waitingTime="2.80"/>
    </personinfo>
    <tripinfo id="NuvalitoBalibago.6" depart="111.50" departLane="-145507700#3_1" departPos="2.30" departPosLat="0.00" departSpeed="32.69" departDelay="0.00" arrival="239.60" arrivalLane="32083201#1_1" arrivalPos="58.53" arrivalPosLat="0.00" arrivalSpeed="16.32" duration="128.10" routeLength="2060.89" waitingTime="0.00" waitingCount="0" stopTime="0.00" timeLoss="37.93" rerouteNo="1" devices="tripinfo_NuvalitoBalibago.6 routing_NuvalitoBalibago.6" vType="tricycle" speedFactor="1.18" vaporized=""/>
    <personinfo id="JollibeetoPalengke.7" depart="105.00" type="ped" speedFactor="0.89" duration="142.20" waitingTime="0.00" timeLoss="14.39" traveltime="142.20">
        <walk depart="105.00" departPos="10.42" arrival="247.20" arrivalPos="27.04" duration="142.20" routeLength="157.27" timeLoss="14.39" maxSpeed="1.23" waitingTime="0.00"/>
    </personinfo>
