<?xml version="1.0" encoding="UTF-8"?>

<!-- generated on 2026-02-20 22:41:08 by Eclipse SUMO sumo Version 1.24.0
<sumoConfiguration xmlns:xsi="http://www.w3.org/2001/XMLSchema-instance" xsi:noNamespaceSchemaLocation="http://sumo.dlr.de/xsd/sumoConfiguration.xsd">

    <input>
        <net-file value="Balibago_traci/network/balibago_signalized.net.xml"/>
        <route-files value="Balibago_traci/demand/flows_normal_traffic.rou.xml"/>
        <additional-files value="Balibago_traci/additionals/balibago.poly.xml,Balibago_traci/ additionals/balibago.add.xml"/>
    </input>

    <output>
        <tripinfo-output value="Balibago_traci/output_DDPG/jam_baseline_trips.xml"/>
        <statistic-output value="Balibago_traci/output_DDPG/jam_baseline_stats.xml"/>
    </output>

    <time>
        <begin value="0"/>
        <end value="10800"/>
        <step-length value="0.1"/>
    </time>

    <processing>
        <lateral-resolution value="0.1"/>
        <collision.action value="none"/>
        <collision.check-junctions value="false"/>
        <collision.mingap-factor value="0"/>
    </processing>

    <report>
        <no-warnings value="true"/>
    </report>

    <traci_server>
        <remote-port value="51634"/>
    </traci_server>

    <gui_only>
        <delay value="0"/>
    </gui_only>

</sumoConfiguration>
-->

<tripinfos xmlns:xsi="http://www.w3.org/2001/XMLSchema-instance" xsi:noNamespaceSchemaLocation="http://sumo.dlr.de/xsd/tripinfo_file.xsd">
    <tripinfo id="BalibagotoNuvali.0" depart="9.20" departLane="777619905_1" departPos="5.10" departPosLat="0.00" departSpeed="0.00" departDelay="0.00" arrival="86.00" arrivalLane="145507700#3_1" arrivalPos="783.31" arrivalPosLat="-0.00" arrivalSpeed="27.74" duration="76.80" routeLength="1312.87" waitingTime="0.00" waitingCount="0" stopTime="0.00" timeLoss="23.77" rerouteNo="1" devices="tripinfo_BalibagotoNuvali.0 routing_BalibagotoNuvali.0" vType="jeep" speedFactor="1.00" vaporized=""/>
    <tripinfo id="NuvalitoBiñan.0" depart="0.70" departLane="-145507700#3_1" departPos="5.10" departPosLat="0.00" departSpeed="27.96" departDelay="0.00" arrival="87.50" arrivalLane="-553887793#0_2" arrivalPos="201.31" arrivalPosLat="0.00" arrivalSpeed="27.94" duration="86.80" routeLength="2093.39" waitingTime="0.00" waitingCount="0" stopTime="0.00" timeLoss="10.61" rerouteNo="1" devices="tripinfo_NuvalitoBiñan.0 routing_NuvalitoBiñan.0" vType="car" speedFactor="1.01" vaporized=""/>
    <personinfo id="PalengketoJollibee.0" depart="0.00" type="ped" speedFactor="1.16" duration="118.00" waitingTime="4.10" timeLoss="15.58" traveltime="118.00">
        <walk depart="0.00" departPos="25.00" arrival="118.00" arrivalPos="5.21" duration="118.00" routeLength="164.52" timeLoss="15.58" maxSpeed="1.61" waitingTime="4.10"/>
    </personinfo>
    <personinfo id="JollibeetoPalengke.0" depart="0.00" type="ped" speedFactor="1.06" duration="118.30" waitingTime="0.00" timeLoss="11.47" traveltime="118.30">
        <walk depart="0.00" departPos="10.42" arrival="118.30" arrivalPos="27.04" duration="118.30" routeLength="157.27" timeLoss="11.47" maxSpeed="1.47" waitingTime="0.00"/>
    </personinfo>
    <tripinfo id="NuvalitoBalibago.0" depart="8.30" departLane="-145507700#3_1" departPos="2.30" departPosLat="0.00" departSpeed="30.57" departDelay="0.00" arrival="129.70" arrivalLane="32083201#1_1" arrivalPos="58.53" arrivalPosLat="0.00" arrivalSpeed="15.23" duration="121.40" routeLength="2060.89" waitingTime="0.00" waitingCount="0" stopTime="0.00" timeLoss="25.08" rerouteNo="1" devices="tripinfo_NuvalitoBalibago.0 routing_NuvalitoBalibago.0" vType="tricycle" speedFactor="1.10" vaporized=""/>
    <tripinfo id="NuvalitoCalamba.0" depart="45.30" departLane="-145507700#3_1" departPos="2.30" departPosLat="0.00" departSpeed="29.04" departDelay="0.00" arrival="150.20" arrivalLane="-185930141#0_2" arrivalPos="428.88" arrivalPosLat="0.00" arrivalSpeed="28.87" duration="104.90" routeLength="2324.56" waitingTime="12.30" waitingCount="1" stopTime="0.00" timeLoss="23.81" rerouteNo="1" devices="tripinfo_NuvalitoCalamba.0 routing_NuvalitoCalamba.0" vType="motorcycle" speedFactor="1.05" vaporized=""/>
    <tripinfo id="BalibagotoCalamba.0" depart="41.40" departLane="145507698_1" departPos="7.55" departPosLat="0.00" departSpeed="0.00" departDelay="1.00" arrival="169.20" arrivalLane="-185930141#0_2" arrivalPos="428.88" arrivalPosLat="0.00" arrivalSpeed="27.74" duration="127.80" routeLength="1523.59" waitingTime="11.00" waitingCount="1" stopTime="0.00" timeLoss="43.57" rerouteNo="1" devices="tripinfo_BalibagotoCalamba.0 routing_BalibagotoCalamba.0" vType="jeep" speedFactor="1.00" vaporized=""/>
    <personinfo id="JollibeetoPalengke.1" depart="45.00" type="ped" speedFactor="0.94" duration="134.00" waitingTime="0.00" timeLoss="13.32" traveltime="134.00">
        <walk depart="45.00" departPos="10.42" arrival="179.00" arrivalPos="27.04" duration="134.00" routeLength="157.27" timeLoss="13.32" maxSpeed="1.30" waitingTime="0.00"/>
    </personinfo>
    <personinfo id="PalengketoJollibee.1" depart="45.00" type="ped" speedFactor="0.87" duration="152.80" waitingTime="1.80" timeLoss="17.24" traveltime="152.80">
        <walk depart="45.00" departPos="25.00" arrival="197.80" arrivalPos="5.21" duration="152.80" routeLength="164.52" timeLoss="17.24" maxSpeed="1.21" waitingTime="1.80"/>
    </personinfo>
    <tripinfo id="NuvalitoBalibago.1" depart="68.00" departLane="-145507700#3_1" departPos="8.10" departPosLat="0.00" departSpeed="27.78" departDelay="0.00" arrival="208.70" arrivalLane="32083201#1_1" arrivalPos="58.53" arrivalPosLat="0.00" arrivalSpeed="13.84" duration="140.70" routeLength="2055.09" waitingTime="0.00" waitingCount="0" stopTime="0.00" timeLoss="34.76" rerouteNo="1" devices="tripinfo_NuvalitoBalibago.1 routing_NuvalitoBalibago.1" vType="jeep" speedFactor="1.00" vaporized=""/>
    <personinfo id="JollibeetoPalengke.2" depart="90.00" type="ped" speedFactor="1.01" duration="124.50" waitingTime="0.00" timeLoss="12.43" traveltime="124.50">
        <walk depart="90.00" departPos="10.42" arrival="214.50" arrivalPos="27.04" duration="124.50" routeLength="157.27" timeLoss="12.43" maxSpeed="1.40" waitingTime="0.00"/>
    </personinfo>
    <tripinfo id="BalibagotoNuvali.1" depart="139.30" departLane="777619905_1" departPos="5.10" departPosLat="0.00" departSpeed="0.00" departDelay="0.00" arrival="226.70" arrivalLane="145507700#3_1" arrivalPos="783.31" arrivalPosLat="-0.00" arrivalSpeed="27.75" duration="87.40" routeLength="1312.87" waitingTime="3.70" waitingCount="1" stopTime="0.00" timeLoss="34.34" rerouteNo="1" devices="tripinfo_BalibagotoNuvali.1 routing_BalibagotoNuvali.1" vType="bus" speedFactor="1.00" vaporized=""/>
    <tripinfo id="CalambatoBiñan.0" depart="32.70" departLane="185930141#0_1" departPos="5.10" departPosLat="0.00" departSpeed="30.77" departDelay="0.00" arrival="227.00" arrivalLane="-553887793#0_1" arrivalPos="201.31" arrivalPosLat="0.00" arrivalSpeed="30.68" duration="194.30" routeLength="1507.67" waitingTime="128.10" waitingCount="1" stopTime="0.00" timeLoss="145.27" rerouteNo="1" devices="tripinfo_CalambatoBiñan.0 routing_CalambatoBiñan.0" vType="car" speedFactor="1.11" vaporized=""/>
    <tripinfo id="BalibagotoBiñan.0" depart="13.70" departLane="145507698_1" departPos="2.30" departPosLat="0.00" departSpeed="9.75" departDelay="0.00" arrival="229.20" arrivalLane="-553887793#0_2" arrivalPos="201.31" arrivalPosLat="0.00" arrivalSpeed="30.00" duration="215.50" routeLength="1690.81" waitingTime="103.10" waitingCount="1" stopTime="0.00" timeLoss="131.51" rerouteNo="1" devices="tripinfo_BalibagotoBiñan.0 routing_BalibagotoBiñan.0" vType="tricycle" speedFactor="1.08" vaporized=""/>
    <tripinfo id="NuvalitoCalamba.1" depart="121.00" departLane="-145507700#3_2" departPos="2.30" departPosLat="0.00" departSpeed="30.60" departDelay="0.00" arrival="236.20" arrivalLane="-185930141#0_1" arrivalPos="428.88" arrivalPosLat="0.00" arrivalSpeed="30.58" duration="115.20" routeLength="2324.56" waitingTime="21.70" waitingCount="1" stopTime="0.00" timeLoss="38.12" rerouteNo="1" devices="tripinfo_NuvalitoCalamba.1 routing_NuvalitoCalamba.1" vType="motorcycle" speedFactor="1.10" vaporized=""/>
    <tripinfo id="BalibagotoBiñan.1" depart="37.20" departLane="145507698_1" departPos="7.55" departPosLat="0.00" departSpeed="0.00" departDelay="0.00" arrival="237.00" arrivalLane="-553887793#0_2" arrivalPos="201.31" arrivalPosLat="0.00" arrivalSpeed="27.74" duration="199.80" routeLength="1682.41" waitingTime="54.10" waitingCount="1" stopTime="0.00" timeLoss="109.63" rerouteNo="1" devices="tripinfo_BalibagotoBiñan.1 routing_BalibagotoBiñan.1" vType="jeep" speedFactor="1.00" vaporized=""/>
    <tripinfo id="NuvalitoStaRosa.0" depart="56.20" departLane="-145507700#3_2" departPos="2.30" departPosLat="0.00" departSpeed="28.99" departDelay="0.00" arrival="240.80" arrivalLane="-92878383#0_1" arrivalPos="603.68" arrivalPosLat="-0.00" arrivalSpeed="8.65" duration="184.60" routeLength="2602.84" waitingTime="0.00" waitingCount="0" stopTime="0.00" timeLoss="7.52" rerouteNo="1" devices="tripinfo_NuvalitoStaRosa.0 routing_NuvalitoStaRosa.0" vType="motorcycle" speedFactor="1.04" vaporized=""/>
    <tripinfo id="BalibagotoCalamba.2" depart="85.30" departLane="145507698_1" departPos="2.30" departPosLat="0.00" departSpeed="0.81" departDelay="0.10" arrival="243.10" arrivalLane="-185930141#0_1" arrivalPos="428.88" arrivalPosLat="0.00" arrivalSpeed="29.45" duration="157.80" routeLength="1528.84" waitingTime="32.40" waitingCount="1" stopTime="0.00" timeLoss="78.09" rerouteNo="1" devices="tripinfo_BalibagotoCalamba.2 routing_BalibagotoCalamba.2" vType="tricycle" speedFactor="1.06" vaporized=""/>
    <personinfo id="PalengketoJollibee.2" depart="90.00" type="ped" speedFactor="0.87" duration="155.20" waitingTime="3.70" timeLoss="18.52" traveltime="155.20">
        <walk depart="90.00" departPos="25.00" arrival="245.20" arrivalPos="5.21" duration="155.20" routeLength="164.52" timeLoss="18.52" maxSpeed="1.20" waitingTime="3.70"/>
    </personinfo>
    <tripinfo id="CalambatoBalibago.0" depart="150.70" departLane="185930141#0_2" departPos="2.30" departPosLat="0.00" departSpeed="26.34" departDelay="0.00" arrival="246.00" arrivalLane="89908334_1" arrivalPos="36.84" arrivalPosLat="0.00" arrivalSpeed="10.92" duration="95.30" routeLength="913.97" waitingTime="32.10" waitingCount="2" stopTime="0.00" timeLoss="51.53" rerouteNo="1" devices="tripinfo_CalambatoBalibago.0 routing_CalambatoBalibago.0" vType="tricycle" speedFactor="0.95" vaporized=""/>
    <tripinfo id="NuvalitoCalamba.2" depart="127.60" departLane="-145507700#3_1" departPos="5.10" departPosLat="0.00" departSpeed="27.38" departDelay="0.00" arrival="246.10" arrivalLane="-185930141#0_1" arrivalPos="428.88" arrivalPosLat="-0.00" arrivalSpeed="27.37" duration="118.50" routeLength="2321.76" waitingTime="0.00" waitingCount="0" stopTime="0.00" timeLoss="32.53" rerouteNo="1" devices="tripinfo_NuvalitoCalamba.2 routing_NuvalitoCalamba.2" vType="car" speedFactor="0.99" vaporized=""/>
    <tripinfo id="BalibagotoCalamba.1" depart="80.90" departLane="145507698_1" departPos="7.55" departPosLat="0.00" departSpeed="0.00" departDelay="0.00" arrival="250.30" arrivalLane="-185930141#0_2" arrivalPos="428.88" arrivalPosLat="0.00" arrivalSpeed="27.72" duration="169.40" routeLength="1526.74" waitingTime="40.50" waitingCount="1" stopTime="0.00" timeLoss="84.83" rerouteNo="1" devices="tripinfo_BalibagotoCalamba.1 routing_BalibagotoCalamba.1" vType="bus" speedFactor="1.00" vaporized=""/>
    <personinfo id="JollibeetoPalengke.3" depart="135.00" type="ped" speedFactor="1.08" duration="116.60" waitingTime="0.00" timeLoss="12.01" traveltime="116.60">
        <walk depart="135.00" departPos="10.42" arrival="251.60" arrivalPos="27.04" duration="116.60" routeLength="157.27" timeLoss="12.01" maxSpeed="1.50" waitingTime="0.00"/>
    </personinfo>
    <personinfo id="JollibeetoSTI.0" depart="0.00" type="ped" speedFactor="1.03" duration="259.60" waitingTime="0.80" timeLoss="26.43" traveltime="259.60">
        <walk depart="0.00" departPos="10.42" arrival="259.60" arrivalPos="19.02" duration="259.60" routeLength="335.01" timeLoss="26.43" maxSpeed="1.44" waitingTime="0.80"/>
    </personinfo>
    <tripinfo id="CalambatoNuvali.0" depart="49.20" departLane="185930141#0_2" departPos="2.30" departPosLat="0.00" departSpeed="30.29" departDelay="0.00" arrival="265.20" arrivalLane="145507700#3_1" arrivalPos="783.31" arrivalPosLat="-0.00" arrivalSpeed="30.27" duration="216.00" routeLength="2335.67" waitingTime="126.00" waitingCount="2" stopTime="0.00" timeLoss="137.44" rerouteNo="1" devices="tripinfo_CalambatoNuvali.0 routing_CalambatoNuvali.0" vType="motorcycle" speedFactor="1.09" vaporized=""/>
    <tripinfo id="BalibagotoStaRosa.0" depart="56.50" departLane="145507698_1" departPos="7.55" departPosLat="0.00" departSpeed="0.00" departDelay="1.10" arrival="276.80" arrivalLane="-92878383#0_1" arrivalPos="603.68" arrivalPosLat="-0.00" arrivalSpeed="8.27" duration="220.30" routeLength="1983.33" waitingTime="0.60" waitingCount="1" stopTime="0.00" timeLoss="31.56" rerouteNo="1" devices="tripinfo_BalibagotoStaRosa.0 routing_BalibagotoStaRosa.0" vType="jeep" speedFactor="1.00" vaporized=""/>
    <personinfo id="PalengketoSTI.0" depart="0.00" type="ped" speedFactor="0.98" duration="278.50" waitingTime="2.60" timeLoss="31.66" traveltime="278.50">
        <walk depart="0.00" departPos="10.42" arrival="278.50" arrivalPos="19.02" duration="278.50" routeLength="335.01" timeLoss="31.66" maxSpeed="1.36" waitingTime="2.60"/>
    </personinfo>
    <tripinfo id="NuvalitoStaRosa.1" depart="76.20" departLane="-145507700#3_2" departPos="5.10" departPosLat="0.00" departSpeed="24.56" departDelay="0.00" arrival="296.90" arrivalLane="-92878383#0_1" arrivalPos="603.68" arrivalPosLat="-0.00" arrivalSpeed="7.27" duration="220.70" routeLength="2600.04" waitingTime="0.00" waitingCount="0" stopTime="0.00" timeLoss="11.82" rerouteNo="1" devices="tripinfo_NuvalitoStaRosa.1 routing_NuvalitoStaRosa.1" vType="car" speedFactor="0.88" vaporized=""/>
    <personinfo id="PalengketoJollibee.3" depart="135.00" type="ped" speedFactor="0.82" duration="166.70" waitingTime="6.90" timeLoss="23.05" traveltime="166.70">
        <walk depart="135.00" departPos="25.00" arrival="301.70" arrivalPos="5.21" duration="166.70" routeLength="164.52" timeLoss="23.05" maxSpeed="1.15" waitingTime="6.90"/>
    </personinfo>
    <personinfo id="JollibeetoPalengke.4" depart="180.00" type="ped" speedFactor="1.03" duration="121.80" waitingTime="0.00" timeLoss="11.89" traveltime="121.80">
        <walk depart="180.00" departPos="10.42" arrival="301.80" arrivalPos="27.04" duration="121.80" routeLength="157.27" timeLoss="11.89" maxSpeed="1.43" waitingTime="0.00"/>
    </personinfo>
    <personinfo id="PalengketoSTI.1" depart="45.00" type="ped" speedFactor="1.03" duration="262.60" waitingTime="3.00" timeLoss="28.94" traveltime="262.60">
        <walk depart="45.00" departPos="10.42" arrival="307.60" arrivalPos="19.02" duration="262.60" routeLength="335.01" timeLoss="28.94" maxSpeed="1.43" waitingTime="3.00"/>
    </personinfo>
    <tripinfo id="BalibagotoBiñan.2" depart="185.50" departLane="145507698_1" departPos="7.55" departPosLat="0.00" departSpeed="0.00" departDelay="0.00" arrival="312.30" arrivalLane="-553887793#0_2" arrivalPos="201.31" arrivalPosLat="0.00" arrivalSpeed="27.75" duration="126.80" routeLength="1685.56" waitingTime="0.00" waitingCount="0" stopTime="0.00" timeLoss="36.32" rerouteNo="1" devices="tripinfo_BalibagotoBiñan.2 routing_BalibagotoBiñan.2" vType="bus" speedFactor="1.00" vaporized=""/>
    <tripinfo id="NuvalitoStaRosa.2" depart="111.10" departLane="-145507700#3_1" departPos="8.10" departPosLat="0.00" departSpeed="27.78" departDelay="0.00" arrival="314.20" arrivalLane="-92878383#0_1" arrivalPos="603.68" arrivalPosLat="-0.00" arrivalSpeed="8.32" duration="203.10" routeLength="2597.04" waitingTime="0.00" waitingCount="0" stopTime="0.00" timeLoss="18.61" rerouteNo="1" devices="tripinfo_NuvalitoStaRosa.2 routing_NuvalitoStaRosa.2" vType="jeep" speedFactor="1.00" vaporized=""/>
    <tripinfo id="NuvalitoStaRosa.3" depart="128.70" departLane="-145507700#3_2" departPos="5.10" departPosLat="0.00" departSpeed="29.41" departDelay="0.00" arrival="316.70" arrivalLane="-92878383#0_1" arrivalPos="603.68" arrivalPosLat="-0.00" arrivalSpeed="8.80" duration="188.00" routeLength="2600.04" waitingTime="0.00" waitingCount="0" stopTime="0.00" timeLoss="13.56" rerouteNo="1" devices="tripinfo_NuvalitoStaRosa.3 routing_NuvalitoStaRosa.3" vType="car" speedFactor="1.06" vaporized=""/>
    <personinfo id="JollibeetoSTI.1" depart="45.00" type="ped" speedFactor="1.00" duration="272.60" waitingTime="1.50" timeLoss="30.93" traveltime="272.60">
        <walk depart="45.00" departPos="10.42" arrival="317.60" arrivalPos="19.02" duration="272.60" routeLength="335.01" timeLoss="30.93" maxSpeed="1.39" waitingTime="1.50"/>
    </personinfo>
    <personinfo id="PalengketoJollibee.4" depart="180.00" type="ped" speedFactor="0.94" duration="140.50" waitingTime="0.00" timeLoss="14.09" traveltime="140.50">
        <walk depart="180.00" departPos="25.00" arrival="320.50" arrivalPos="5.21" duration="140.50" routeLength="164.52" timeLoss="14.09" maxSpeed="1.30" waitingTime="0.00"/>
    </personinfo>
    <personinfo id="STItoSakayan.0" depart="0.00" type="ped" speedFactor="0.93" duration="320.70" waitingTime="0.00" timeLoss="31.65" traveltime="320.70">
        <walk depart="0.00" departPos="25.00" arrival="320.70" arrivalPos="27.04" duration="320.70" routeLength="373.08" timeLoss="31.65" maxSpeed="1.29" waitingTime="0.00"/>
    </personinfo>
    <tripinfo id="BiñantoCalamba.1" depart="178.20" departLane="553887793#0_1" departPos="5.10" departPosLat="0.00" departSpeed="24.38" departDelay="0.00" arrival="324.00" arrivalLane="-185930141#0_1" arrivalPos="428.88" arrivalPosLat="0.00" arrivalSpeed="24.34" duration="145.80" routeLength="1507.67" waitingTime="56.60" waitingCount="2" stopTime="0.00" timeLoss="83.93" rerouteNo="1" devices="tripinfo_BiñantoCalamba.1 routing_BiñantoCalamba.1" vType="car" speedFactor="0.88" vaporized=""/>
    <personinfo id="STItoSakayan.1" depart="45.00" type="ped" speedFactor="1.06" duration="282.90" waitingTime="0.00" timeLoss="28.67" traveltime="282.90">
        <walk depart="45.00" departPos="25.00" arrival="327.90" arrivalPos="27.04" duration="282.90" routeLength="373.08" timeLoss="28.67" maxSpeed="1.47" waitingTime="0.00"/>
    </personinfo>
    <tripinfo id="BiñantoCalamba.0" depart="21.20" departLane="553887793#0_1" departPos="8.10" departPosLat="0.00" departSpeed="27.78" departDelay="0.00" arrival="330.20" arrivalLane="-185930141#0_1" arrivalPos="428.88" arrivalPosLat="0.00" arrivalSpeed="27.75" duration="309.00" routeLength="1504.67" waitingTime="214.20" waitingCount="2" stopTime="0.00" timeLoss="254.80" rerouteNo="1" devices="tripinfo_BiñantoCalamba.0 routing_BiñantoCalamba.0" vType="jeep" speedFactor="1.00" vaporized=""/>
    <tripinfo id="CalambatoBalibago.1" depart="194.30" departLane="185930141#0_2" departPos="8.10" departPosLat="0.00" departSpeed="27.78" departDelay="0.00" arrival="330.30" arrivalLane="89908334_1" arrivalPos="36.84" arrivalPosLat="0.00" arrivalSpeed="8.79" duration="136.00" routeLength="908.17" waitingTime="65.60" waitingCount="1" stopTime="0.00" timeLoss="94.86" rerouteNo="1" devices="tripinfo_CalambatoBalibago.1 routing_CalambatoBalibago.1" vType="jeep" speedFactor="1.00" vaporized=""/>
    <tripinfo id="CalambatoBiñan.1" depart="252.30" departLane="185930141#0_1" departPos="2.30" departPosLat="0.00" departSpeed="25.60" departDelay="0.00" arrival="333.00" arrivalLane="-553887793#0_1" arrivalPos="201.31" arrivalPosLat="0.00" arrivalSpeed="25.54" duration="80.70" routeLength="1510.47" waitingTime="7.10" waitingCount="1" stopTime="0.00" timeLoss="21.61" rerouteNo="1" devices="tripinfo_CalambatoBiñan.1 routing_CalambatoBiñan.1" vType="tricycle" speedFactor="0.92" vaporized=""/>
    <personinfo id="JollibeetoSTI.2" depart="90.00" type="ped" speedFactor="1.02" duration="264.30" waitingTime="1.10" timeLoss="27.10" traveltime="264.30">
        <walk depart="90.00" departPos="10.42" arrival="354.30" arrivalPos="19.02" duration="264.30" routeLength="335.01" timeLoss="27.10" maxSpeed="1.41" waitingTime="1.10"/>
    </personinfo>
    <personinfo id="PalengketoSTI.2" depart="90.00" type="ped" speedFactor="1.02" duration="268.20" waitingTime="4.20" timeLoss="31.30" traveltime="268.20">
        <walk depart="90.00" departPos="10.42" arrival="358.20" arrivalPos="19.02" duration="268.20" routeLength="335.01" timeLoss="31.30" maxSpeed="1.41" waitingTime="4.20"/>
    </personinfo>
    <tripinfo id="BalibagotoNuvali.2" depart="289.70" departLane="777619905_1" departPos="2.30" departPosLat="0.00" departSpeed="5.50" departDelay="0.00" arrival="358.60" arrivalLane="145507700#3_1" arrivalPos="783.31" arrivalPosLat="-0.00" arrivalSpeed="28.87" duration="68.90" routeLength="1315.67" waitingTime="1.20" waitingCount="1" stopTime="0.00" timeLoss="17.74" rerouteNo="1" devices="tripinfo_BalibagotoNuvali.2 routing_BalibagotoNuvali.2" vType="tricycle" speedFactor="1.04" vaporized=""/>
    <personinfo id="PalengketoJollibee.5" depart="225.00" type="ped" speedFactor="1.01" duration="139.50" waitingTime="8.30" timeLoss="21.91" traveltime="139.50">
        <walk depart="225.00" departPos="25.00" arrival="364.50" arrivalPos="5.21" duration="139.50" routeLength="164.52" timeLoss="21.91" maxSpeed="1.40" waitingTime="8.30"/>
    </personinfo>
    <personinfo id="STItoSakayan.2" depart="90.00" type="ped" speedFactor="1.10" duration="274.70" waitingTime="2.40" timeLoss="29.74" traveltime="274.70">
        <walk depart="90.00" departPos="25.00" arrival="364.70" arrivalPos="27.04" duration="274.70" routeLength="373.08" timeLoss="29.74" maxSpeed="1.52" waitingTime="2.40"/>
    </personinfo>
    <tripinfo id="StaRosatoBiñan.0" depart="38.20" departLane="92878383#0_1" departPos="5.10" departPosLat="0.00" departSpeed="8.59" departDelay="0.00" arrival="373.10" arrivalLane="-553887793#0_1" arrivalPos="201.31" arrivalPosLat="-0.00" arrivalSpeed="28.64" duration="334.90" routeLength="1607.72" waitingTime="190.50" waitingCount="1" stopTime="0.00" timeLoss="198.43" rerouteNo="1" devices="tripinfo_StaRosatoBiñan.0 routing_StaRosatoBiñan.0" vType="car" speedFactor="1.03" vaporized=""/>
    <personinfo id="JollibeetoPalengke.5" depart="225.00" type="ped" speedFactor="0.83" duration="151.40" waitingTime="0.10" timeLoss="15.13" traveltime="151.40">
        <walk depart="225.00" departPos="10.42" arrival="376.40" arrivalPos="27.04" duration="151.40" routeLength="157.27" timeLoss="15.13" maxSpeed="1.15" waitingTime="0.10"/>
    </personinfo>
    <tripinfo id="StaRosatoBiñan.1" depart="116.60" departLane="92878383#0_1" departPos="5.10" departPosLat="0.00" departSpeed="5.25" departDelay="0.60" arrival="379.20" arrivalLane="-553887793#0_1" arrivalPos="201.31" arrivalPosLat="-0.00" arrivalSpeed="30.21" duration="262.60" routeLength="1607.72" waitingTime="109.40" waitingCount="1" stopTime="0.00" timeLoss="133.65" rerouteNo="1" devices="tripinfo_StaRosatoBiñan.1 routing_StaRosatoBiñan.1" vType="car" speedFactor="1.09" vaporized=""/>
    <tripinfo id="StaRosatoBalibago.0" depart="5.30" departLane="92878383#0_1" departPos="2.30" departPosLat="0.00" departSpeed="8.79" departDelay="0.00" arrival="381.50" arrivalLane="-32083237#0_1" arrivalPos="36.46" arrivalPosLat="0.00" arrivalSpeed="15.67" duration="376.20" routeLength="1364.26" waitingTime="227.30" waitingCount="2" stopTime="0.00" timeLoss="249.13" rerouteNo="1" devices="tripinfo_StaRosatoBalibago.0 routing_StaRosatoBalibago.0" vType="tricycle" speedFactor="1.06" vaporized=""/>
    <personinfo id="PalengketoSTI.3" depart="135.00" type="ped" speedFactor="1.09" duration="248.20" waitingTime="2.10" timeLoss="26.85" traveltime="248.20">
        <walk depart="135.00" departPos="10.42" arrival="383.20" arrivalPos="19.02" duration="248.20" routeLength="335.01" timeLoss="26.85" maxSpeed="1.51" waitingTime="2.10"/>
    </personinfo>
    <tripinfo id="BiñantoStaRosa.0" depart="24.20" departLane="553887793#0_2" departPos="5.10" departPosLat="0.00" departSpeed="26.15" departDelay="0.00" arrival="383.70" arrivalLane="-92878383#0_1" arrivalPos="603.68" arrivalPosLat="-0.00" arrivalSpeed="7.80" duration="359.50" routeLength="1785.95" waitingTime="184.90" waitingCount="1" stopTime="0.00" timeLoss="195.70" rerouteNo="1" devices="tripinfo_BiñantoStaRosa.0 routing_BiñantoStaRosa.0" vType="car" speedFactor="0.94" vaporized=""/>
    <personinfo id="JollibeetoPalengke.6" depart="270.00" type="ped" speedFactor="1.05" duration="120.10" waitingTime="0.00" timeLoss="11.82" traveltime="120.10">
        <walk depart="270.00" departPos="10.42" arrival="390.10" arrivalPos="27.04" duration="120.10" routeLength="157.27" timeLoss="11.82" maxSpeed="1.45" waitingTime="0.00"/>
    </personinfo>
    <tripinfo id="BalibagotoCalamba.3" depart="277.20" departLane="145507698_1" departPos="2.30" departPosLat="0.00" departSpeed="9.75" departDelay="0.00" arrival="400.50" arrivalLane="-185930141#0_1" arrivalPos="428.88" arrivalPosLat="0.00" arrivalSpeed="31.83" duration="123.30" routeLength="1531.99" waitingTime="23.90" waitingCount="1" stopTime="0.00" timeLoss="49.28" rerouteNo="1" devices="tripinfo_BalibagotoCalamba.3 routing_BalibagotoCalamba.3" vType="tricycle" speedFactor="1.15" vaporized=""/>
    <tripinfo id="StaRosatoCalamba.0" depart="77.50" departLane="92878383#0_1" departPos="2.30" departPosLat="0.00" departSpeed="4.85" departDelay="0.00" arrival="403.20" arrivalLane="-185930141#0_1" arrivalPos="428.88" arrivalPosLat="-0.00" arrivalSpeed="27.19" duration="325.70" routeLength="1858.26" waitingTime="146.40" waitingCount="1" stopTime="0.00" timeLoss="172.83" rerouteNo="1" devices="tripinfo_StaRosatoCalamba.0 routing_StaRosatoCalamba.0" vType="tricycle" speedFactor="0.98" vaporized=""/>
    <tripinfo id="BiñantoStaRosa.1" depart="250.00" departLane="553887793#0_2" departPos="5.10" departPosLat="0.00" departSpeed="29.54" departDelay="0.00" arrival="404.50" arrivalLane="-92878383#0_1" arrivalPos="603.68" arrivalPosLat="-0.00" arrivalSpeed="8.80" duration="154.50" routeLength="1785.95" waitingTime="3.40" waitingCount="1" stopTime="0.00" timeLoss="9.52" rerouteNo="1" devices="tripinfo_BiñantoStaRosa.1 routing_BiñantoStaRosa.1" vType="car" speedFactor="1.06" vaporized=""/>
    <tripinfo id="StaRosatoCalamba.1" depart="93.90" departLane="92878383#0_1" departPos="2.30" departPosLat="0.00" departSpeed="7.67" departDelay="0.00" arrival="405.00" arrivalLane="-185930141#0_1" arrivalPos="428.88" arrivalPosLat="-0.00" arrivalSpeed="25.52" duration="311.10" routeLength="1858.26" waitingTime="124.30" waitingCount="1" stopTime="0.00" timeLoss="148.07" rerouteNo="1" devices="tripinfo_StaRosatoCalamba.1 routing_StaRosatoCalamba.1" vType="tricycle" speedFactor="0.92" vaporized=""/>
    <tripinfo id="BalibagotoStaRosa.1" depart="214.70" departLane="145507698_1" departPos="2.30" departPosLat="0.00" departSpeed="9.75" departDelay="0.00" arrival="406.30" arrivalLane="-92878383#0_1" arrivalPos="603.68" arrivalPosLat="0.00" arrivalSpeed="9.25" duration="191.60" routeLength="1991.73" waitingTime="0.00" waitingCount="0" stopTime="0.00" timeLoss="21.57" rerouteNo="1" devices="tripinfo_BalibagotoStaRosa.1 routing_BalibagotoStaRosa.1" vType="tricycle" speedFactor="1.11" vaporized=""/>
    <tripinfo id="StaRosatoCalamba.2" depart="94.90" departLane="92878383#0_1" departPos="5.10" departPosLat="0.00" departSpeed="2.18" departDelay="0.20" arrival="407.50" arrivalLane="-185930141#0_1" arrivalPos="428.88" arrivalPosLat="-0.00" arrivalSpeed="27.28" duration="312.60" routeLength="1855.46" waitingTime="122.10" waitingCount="1" stopTime="0.00" timeLoss="160.71" rerouteNo="1" devices="tripinfo_StaRosatoCalamba.2 routing_StaRosatoCalamba.2" vType="car" speedFactor="0.99" vaporized=""/>
    <tripinfo id="StaRosatoCalamba.3" depart="216.90" departLane="92878383#0_1" departPos="12.10" departPosLat="0.00" departSpeed="8.33" departDelay="0.00" arrival="409.60" arrivalLane="-185930141#0_2" arrivalPos="428.88" arrivalPosLat="0.00" arrivalSpeed="27.76" duration="192.70" routeLength="1848.46" waitingTime="16.70" waitingCount="1" stopTime="0.00" timeLoss="43.76" rerouteNo="1" devices="tripinfo_StaRosatoCalamba.3 routing_StaRosatoCalamba.3" vType="bus" speedFactor="1.00" vaporized=""/>
    <tripinfo id="CalambatoBalibago.2" depart="238.20" departLane="185930141#0_2" departPos="8.10" departPosLat="0.00" departSpeed="27.78" departDelay="0.00" arrival="413.70" arrivalLane="89908334_1" arrivalPos="36.84" arrivalPosLat="0.00" arrivalSpeed="8.44" duration="175.50" routeLength="908.17" waitingTime="92.60" waitingCount="3" stopTime="0.00" timeLoss="134.25" rerouteNo="1" devices="tripinfo_CalambatoBalibago.2 routing_CalambatoBalibago.2" vType="jeep" speedFactor="1.00" vaporized=""/>
    <tripinfo id="BalibagotoNuvali.3" depart="337.00" departLane="777619905_1" departPos="5.10" departPosLat="0.00" departSpeed="0.00" departDelay="0.00" arrival="413.70" arrivalLane="145507700#3_1" arrivalPos="783.31" arrivalPosLat="-0.00" arrivalSpeed="27.76" duration="76.70" routeLength="1312.87" waitingTime="0.00" waitingCount="0" stopTime="0.00" timeLoss="23.63" rerouteNo="1" devices="tripinfo_BalibagotoNuvali.3 routing_BalibagotoNuvali.3" vType="jeep" speedFactor="1.00" vaporized=""/>
    <personinfo id="JollibeetoSTI.3" depart="135.00" type="ped" speedFactor="0.97" duration="280.40" waitingTime="2.40" timeLoss="30.96" traveltime="280.40">
        <walk depart="135.00" departPos="10.42" arrival="415.40" arrivalPos="19.02" duration="280.40" routeLength="335.01" timeLoss="30.96" maxSpeed="1.34" waitingTime="2.40"/>
    </personinfo>