<?xml version="1.0" encoding="UTF-8"?>

<!-- generated on 2026-02-20 22:40:09 by Eclipse SUMO sumo Version 1.24.0
<sumoConfiguration xmlns:xsi="http://www.w3.org/2001/XMLSchema-instance" xsi:noNamespaceSchemaLocation="http://sumo.dlr.de/xsd/sumoConfiguration.xsd">

    <input>
        <net-file value="Balibago_traci/network/balibago_signalized.net.xml"/>
        <route-files value="Balibago_traci/demand/flows_normal_traffic.rou.xml"/>
        <additional-files value="Balibago_traci/additionals/balibago.poly.xml,Balibago_traci/ additionals/balibago.add.xml"/>
    </input>

    <output>
        <tripinfo-output value="Balibago_traci/output_DDPG/normal_trips.xml"/>
        <statistic-output value="Balibago_traci/output_DDPG/normal_stats.xml"/>
    </output>

    <time>
        <begin value="0"/>
        <end value="10800"/>
        <step-length value="0.1"/>
    </time>

    <processing>
        <lateral-resolution value="0.1"/>
        <collision.action value="none"/>
        <collision.check-junctions value="false"/>
        <collision.mingap-factor value="0"/>
    </processing>

    <report>
        <no-warnings value="true"/>
    </report>

    <traci_server>
        <remote-port value="8814"/>
    </traci_server>

    <gui_only>
        <delay value="0"/>
    </gui_only>

</sumoConfiguration>
-->

<tripinfos xmlns:xsi="http://www.w3.org/2001/XMLSchema-instance" xsi:noNamespaceSchemaLocation="http://sumo.dlr.de/xsd/tripinfo_file.xsd">
    <tripinfo id="BalibagotoNuvali.0" depart="9.20" departLane="777619905_1" departPos="5.10" departPosLat="0.00" departSpeed="0.00" departDelay="0.00" arrival="86.00" arrivalLane="145507700#3_1" arrivalPos="783.31" arrivalPosLat="-0.00" arrivalSpeed="27.74" duration="76.80" routeLength="1312.87" waitingTime="0.00" waitingCount="0" stopTime="0.00" timeLoss="23.77" rerouteNo="1" devices="tripinfo_BalibagotoNuvali.0 routing_BalibagotoNuvali.0" vType="jeep" speedFactor="1.00" vaporized=""/>
    <tripinfo id="NuvalitoBiñan.0" depart="0.70" departLane="-145507700#3_1" departPos="5.10" departPosLat="0.00" departSpeed="27.96" departDelay="0.00" arrival="87.50" arrivalLane="-553887793#0_2" arrivalPos="201.31" arrivalPosLat="0.00" arrivalSpeed="27.94" duration="86.80" routeLength="2093.39" waitingTime="0.00" waitingCount="0" stopTime="0.00" timeLoss="10.61" rerouteNo="1" devices="tripinfo_NuvalitoBiñan.0 routing_NuvalitoBiñan.0" vType="car" speedFactor="1.01" vaporized=""/>
    <personinfo id="PalengketoJollibee.0" depart="0.00" type="ped" speedFactor="1.16" duration="118.00" waitingTime="4.10" timeLoss="15.58" traveltime="118.00">
        <walk depart="0.00" departPos="25.00" arrival="118.00" arrivalPos="5.21" duration="118.00" routeLength="164.52" timeLoss="15.58" maxSpeed="1.61" waitingTime="4.10"/>
    </personinfo>
    <personinfo id="JollibeetoPalengke.0" depart="0.00" type="ped" speedFactor="1.06" duration="118.30" waitingTime="0.00" timeLoss="11.47" traveltime="118.30">
        <walk depart="0.00" departPos="10.42" arrival="118.30" arrivalPos="27.04" duration="118.30" routeLength="157.27" timeLoss="11.47" maxSpeed="1.47" waitingTime="0.00"/>
    </personinfo>
    <tripinfo id="NuvalitoBalibago.0" depart="8.30" departLane="-145507700#3_1" departPos="2.30" departPosLat="0.00" departSpeed="30.57" departDelay="0.00" arrival="129.70" arrivalLane="32083201#1_1" arrivalPos="58.53" arrivalPosLat="0.00" arrivalSpeed="15.23" duration="121.40" routeLength="2060.89" waitingTime="0.00" waitingCount="0" stopTime="0.00" timeLoss="25.08" rerouteNo="1" devices="tripinfo_NuvalitoBalibago.0 routing_NuvalitoBalibago.0" vType="tricycle" speedFactor="1.10" vaporized=""/>
    <tripinfo id="NuvalitoCalamba.0" depart="45.30" departLane="-145507700#3_1" departPos="2.30" departPosLat="0.00" departSpeed="29.04" departDelay="0.00" arrival="133.40" arrivalLane="-185930141#0_2" arrivalPos="428.88" arrivalPosLat="0.00" arrivalSpeed="28.80" duration="88.10" routeLength="2324.56" waitingTime="0.00" waitingCount="0" stopTime="0.00" timeLoss="6.99" rerouteNo="1" devices="tripinfo_NuvalitoCalamba.0 routing_NuvalitoCalamba.0" vType="motorcycle" speedFactor="1.05" vaporized=""/>
    <tripinfo id="BalibagotoCalamba.0" depart="41.40" departLane="145507698_1" departPos="7.55" departPosLat="0.00" departSpeed="0.00" departDelay="1.00" arrival="169.20" arrivalLane="-185930141#0_2" arrivalPos="428.88" arrivalPosLat="0.00" arrivalSpeed="27.72" duration="127.80" routeLength="1523.59" waitingTime="11.00" waitingCount="1" stopTime="0.00" timeLoss="43.49" rerouteNo="1" devices="tripinfo_BalibagotoCalamba.0 routing_BalibagotoCalamba.0" vType="jeep" speedFactor="1.00" vaporized=""/>
    <tripinfo id="CalambatoBiñan.0" depart="32.70" departLane="185930141#0_1" departPos="5.10" departPosLat="0.00" departSpeed="30.77" departDelay="0.00" arrival="176.30" arrivalLane="-553887793#0_1" arrivalPos="201.31" arrivalPosLat="0.00" arrivalSpeed="30.70" duration="143.60" routeLength="1507.67" waitingTime="77.70" waitingCount="1" stopTime="0.00" timeLoss="94.58" rerouteNo="1" devices="tripinfo_CalambatoBiñan.0 routing_CalambatoBiñan.0" vType="car" speedFactor="1.11" vaporized=""/>
    <tripinfo id="BalibagotoBiñan.0" depart="13.70" departLane="145507698_1" departPos="2.30" departPosLat="0.00" departSpeed="9.75" departDelay="0.00" arrival="178.90" arrivalLane="-553887793#0_2" arrivalPos="201.31" arrivalPosLat="0.00" arrivalSpeed="29.98" duration="165.20" routeLength="1690.81" waitingTime="52.70" waitingCount="1" stopTime="0.00" timeLoss="81.20" rerouteNo="1" devices="tripinfo_BalibagotoBiñan.0 routing_BalibagotoBiñan.0" vType="tricycle" speedFactor="1.08" vaporized=""/>
    <personinfo id="JollibeetoPalengke.1" depart="45.00" type="ped" speedFactor="0.94" duration="134.00" waitingTime="0.00" timeLoss="13.32" traveltime="134.00">
        <walk depart="45.00" departPos="10.42" arrival="179.00" arrivalPos="27.04" duration="134.00" routeLength="157.27" timeLoss="13.32" maxSpeed="1.30" waitingTime="0.00"/>
    </personinfo>
    <tripinfo id="BalibagotoBiñan.1" depart="37.20" departLane="145507698_1" departPos="7.55" departPosLat="0.00" departSpeed="0.00" departDelay="0.00" arrival="186.90" arrivalLane="-553887793#0_2" arrivalPos="201.31" arrivalPosLat="0.00" arrivalSpeed="27.78" duration="149.70" routeLength="1682.41" waitingTime="3.70" waitingCount="1" stopTime="0.00" timeLoss="59.56" rerouteNo="1" devices="tripinfo_BalibagotoBiñan.1 routing_BalibagotoBiñan.1" vType="jeep" speedFactor="1.00" vaporized=""/>
    <personinfo id="PalengketoJollibee.1" depart="45.00" type="ped" speedFactor="0.87" duration="152.80" waitingTime="1.80" timeLoss="17.24" traveltime="152.80">
        <walk depart="45.00" departPos="25.00" arrival="197.80" arrivalPos="5.21" duration="152.80" routeLength="164.52" timeLoss="17.24" maxSpeed="1.21" waitingTime="1.80"/>
    </personinfo>
    <tripinfo id="CalambatoNuvali.0" depart="49.20" departLane="185930141#0_2" departPos="2.30" departPosLat="0.00" departSpeed="30.29" departDelay="0.00" arrival="202.90" arrivalLane="145507700#3_1" arrivalPos="783.31" arrivalPosLat="-0.00" arrivalSpeed="30.09" duration="153.70" routeLength="2335.67" waitingTime="65.80" waitingCount="1" stopTime="0.00" timeLoss="75.09" rerouteNo="1" devices="tripinfo_CalambatoNuvali.0 routing_CalambatoNuvali.0" vType="motorcycle" speedFactor="1.09" vaporized=""/>
    <tripinfo id="NuvalitoBalibago.1" depart="68.00" departLane="-145507700#3_1" departPos="8.10" departPosLat="0.00" departSpeed="27.78" departDelay="0.00" arrival="208.50" arrivalLane="32083201#1_1" arrivalPos="58.53" arrivalPosLat="0.00" arrivalSpeed="13.88" duration="140.50" routeLength="2055.09" waitingTime="0.00" waitingCount="0" stopTime="0.00" timeLoss="34.71" rerouteNo="1" devices="tripinfo_NuvalitoBalibago.1 routing_NuvalitoBalibago.1" vType="jeep" speedFactor="1.00" vaporized=""/>
    <personinfo id="JollibeetoPalengke.2" depart="90.00" type="ped" speedFactor="1.01" duration="124.60" waitingTime="0.00" timeLoss="12.53" traveltime="124.60">
        <walk depart="90.00" departPos="10.42" arrival="214.60" arrivalPos="27.04" duration="124.60" routeLength="157.27" timeLoss="12.53" maxSpeed="1.40" waitingTime="0.00"/>
    </personinfo>
    <tripinfo id="BalibagotoNuvali.1" depart="139.30" departLane="777619905_1" departPos="5.10" departPosLat="0.00" departSpeed="0.00" departDelay="0.00" arrival="226.70" arrivalLane="145507700#3_1" arrivalPos="783.31" arrivalPosLat="-0.00" arrivalSpeed="27.77" duration="87.40" routeLength="1312.87" waitingTime="3.60" waitingCount="1" stopTime="0.00" timeLoss="34.24" rerouteNo="1" devices="tripinfo_BalibagotoNuvali.1 routing_BalibagotoNuvali.1" vType="bus" speedFactor="1.00" vaporized=""/>
    <tripinfo id="NuvalitoStaRosa.0" depart="56.20" departLane="-145507700#3_2" departPos="2.30" departPosLat="0.00" departSpeed="28.99" departDelay="0.00" arrival="240.80" arrivalLane="-92878383#0_1" arrivalPos="603.68" arrivalPosLat="-0.00" arrivalSpeed="8.66" duration="184.60" routeLength="2602.84" waitingTime="0.00" waitingCount="0" stopTime="0.00" timeLoss="7.52" rerouteNo="1" devices="tripinfo_NuvalitoStaRosa.0 routing_NuvalitoStaRosa.0" vType="motorcycle" speedFactor="1.04" vaporized=""/>
    <personinfo id="PalengketoJollibee.2" depart="90.00" type="ped" speedFactor="0.87" duration="155.60" waitingTime="4.10" timeLoss="18.92" traveltime="155.60">
        <walk depart="90.00" departPos="25.00" arrival="245.60" arrivalPos="5.21" duration="155.60" routeLength="164.52" timeLoss="18.92" maxSpeed="1.20" waitingTime="4.10"/>
    </personinfo>
    <personinfo id="JollibeetoPalengke.3" depart="135.00" type="ped" speedFactor="1.08" duration="116.50" waitingTime="0.00" timeLoss="11.91" traveltime="116.50">
        <walk depart="135.00" departPos="10.42" arrival="251.50" arrivalPos="27.04" duration="116.50" routeLength="157.27" timeLoss="11.91" maxSpeed="1.50" waitingTime="0.00"/>
    </personinfo>
    <personinfo id="JollibeetoSTI.0" depart="0.00" type="ped" speedFactor="1.03" duration="259.50" waitingTime="0.80" timeLoss="26.33" traveltime="259.50">
        <walk depart="0.00" departPos="10.42" arrival="259.50" arrivalPos="19.02" duration="259.50" routeLength="335.01" timeLoss="26.33" maxSpeed="1.44" waitingTime="0.80"/>
    </personinfo>
    <tripinfo id="StaRosatoBiñan.0" depart="38.20" departLane="92878383#0_1" departPos="5.10" departPosLat="0.00" departSpeed="8.59" departDelay="0.00" arrival="261.10" arrivalLane="-553887793#0_1" arrivalPos="201.31" arrivalPosLat="-0.00" arrivalSpeed="28.54" duration="222.90" routeLength="1607.72" waitingTime="78.60" waitingCount="1" stopTime="0.00" timeLoss="86.48" rerouteNo="1" devices="tripinfo_StaRosatoBiñan.0 routing_StaRosatoBiñan.0" vType="car" speedFactor="1.03" vaporized=""/>
    <tripinfo id="StaRosatoBiñan.1" depart="116.60" departLane="92878383#0_1" departPos="5.10" departPosLat="0.00" departSpeed="5.25" departDelay="0.60" arrival="267.10" arrivalLane="-553887793#0_1" arrivalPos="201.31" arrivalPosLat="-0.00" arrivalSpeed="30.24" duration="150.50" routeLength="1607.72" waitingTime="0.00" waitingCount="0" stopTime="0.00" timeLoss="21.59" rerouteNo="1" devices="tripinfo_StaRosatoBiñan.1 routing_StaRosatoBiñan.1" vType="car" speedFactor="1.09" vaporized=""/>
    <tripinfo id="BalibagotoStaRosa.0" depart="56.50" departLane="145507698_1" departPos="7.55" departPosLat="0.00" departSpeed="0.00" departDelay="1.10" arrival="276.80" arrivalLane="-92878383#0_1" arrivalPos="603.68" arrivalPosLat="-0.00" arrivalSpeed="8.29" duration="220.30" routeLength="1983.33" waitingTime="0.60" waitingCount="1" stopTime="0.00" timeLoss="31.49" rerouteNo="1" devices="tripinfo_BalibagotoStaRosa.0 routing_BalibagotoStaRosa.0" vType="jeep" speedFactor="1.00" vaporized=""/>
    <personinfo id="PalengketoSTI.0" depart="0.00" type="ped" speedFactor="0.98" duration="278.40" waitingTime="2.60" timeLoss="31.56" traveltime="278.40">
        <walk depart="0.00" departPos="10.42" arrival="278.40" arrivalPos="19.02" duration="278.40" routeLength="335.01" timeLoss="31.56" maxSpeed="1.36" waitingTime="2.60"/>
    </personinfo>
    <tripinfo id="NuvalitoBiñan.1" depart="189.10" departLane="-145507700#3_2" departPos="5.10" departPosLat="0.00" departSpeed="28.87" departDelay="0.00" arrival="288.10" arrivalLane="-553887793#0_2" arrivalPos="201.31" arrivalPosLat="0.00" arrivalSpeed="28.83" duration="99.00" routeLength="2093.39" waitingTime="4.70" waitingCount="1" stopTime="0.00" timeLoss="25.21" rerouteNo="1" devices="tripinfo_NuvalitoBiñan.1 routing_NuvalitoBiñan.1" vType="car" speedFactor="1.04" vaporized=""/>
    <tripinfo id="CalambatoBalibago.0" depart="150.70" departLane="185930141#0_2" departPos="2.30" departPosLat="0.00" departSpeed="26.34" departDelay="0.00" arrival="296.20" arrivalLane="89908334_1" arrivalPos="36.84" arrivalPosLat="0.00" arrivalSpeed="10.94" duration="145.50" routeLength="913.97" waitingTime="83.60" waitingCount="1" stopTime="0.00" timeLoss="101.89" rerouteNo="1" devices="tripinfo_CalambatoBalibago.0 routing_CalambatoBalibago.0" vType="tricycle" speedFactor="0.95" vaporized=""/>
    <tripinfo id="NuvalitoStaRosa.1" depart="76.20" departLane="-145507700#3_2" departPos="5.10" departPosLat="0.00" departSpeed="24.56" departDelay="0.00" arrival="296.90" arrivalLane="-92878383#0_1" arrivalPos="603.68" arrivalPosLat="-0.00" arrivalSpeed="7.24" duration="220.70" routeLength="2600.04" waitingTime="0.00" waitingCount="0" stopTime="0.00" timeLoss="11.79" rerouteNo="1" devices="tripinfo_NuvalitoStaRosa.1 routing_NuvalitoStaRosa.1" vType="car" speedFactor="0.88" vaporized=""/>
    <personinfo id="JollibeetoPalengke.4" depart="180.00" type="ped" speedFactor="1.03" duration="121.50" waitingTime="0.00" timeLoss="11.59" traveltime="121.50">
        <walk depart="180.00" departPos="10.42" arrival="301.50" arrivalPos="27.04" duration="121.50" routeLength="157.27" timeLoss="11.59" maxSpeed="1.43" waitingTime="0.00"/>
    </personinfo>
    <personinfo id="PalengketoJollibee.3" depart="135.00" type="ped" speedFactor="0.82" duration="167.30" waitingTime="7.20" timeLoss="23.65" traveltime="167.30">
        <walk depart="135.00" departPos="25.00" arrival="302.30" arrivalPos="5.21" duration="167.30" routeLength="164.52" timeLoss="23.65" maxSpeed="1.15" waitingTime="7.20"/>
    </personinfo>
    <tripinfo id="CalambatoBalibago.1" depart="194.30" departLane="185930141#0_2" departPos="8.10" departPosLat="0.00" departSpeed="27.78" departDelay="0.00" arrival="304.70" arrivalLane="89908334_1" arrivalPos="36.84" arrivalPosLat="0.00" arrivalSpeed="8.76" duration="110.40" routeLength="908.17" waitingTime="35.40" waitingCount="1" stopTime="0.00" timeLoss="69.08" rerouteNo="1" devices="tripinfo_CalambatoBalibago.1 routing_CalambatoBalibago.1" vType="jeep" speedFactor="1.00" vaporized=""/>
    <personinfo id="PalengketoSTI.1" depart="45.00" type="ped" speedFactor="1.03" duration="262.60" waitingTime="3.00" timeLoss="28.94" traveltime="262.60">
        <walk depart="45.00" departPos="10.42" arrival="307.60" arrivalPos="19.02" duration="262.60" routeLength="335.01" timeLoss="28.94" maxSpeed="1.43" waitingTime="3.00"/>
    </personinfo>
    <tripinfo id="BiñantoStaRosa.0" depart="24.20" departLane="553887793#0_2" departPos="5.10" departPosLat="0.00" departSpeed="26.15" departDelay="0.00" arrival="307.70" arrivalLane="-92878383#0_1" arrivalPos="603.68" arrivalPosLat="-0.00" arrivalSpeed="7.80" duration="283.50" routeLength="1785.95" waitingTime="109.00" waitingCount="1" stopTime="0.00" timeLoss="119.72" rerouteNo="1" devices="tripinfo_BiñantoStaRosa.0 routing_BiñantoStaRosa.0" vType="car" speedFactor="0.94" vaporized=""/>
    <tripinfo id="CalambatoBalibago.2" depart="238.20" departLane="185930141#0_2" departPos="8.10" departPosLat="0.00" departSpeed="27.78" departDelay="0.00" arrival="308.90" arrivalLane="89908334_1" arrivalPos="36.84" arrivalPosLat="0.00" arrivalSpeed="8.95" duration="70.70" routeLength="908.17" waitingTime="0.00" waitingCount="0" stopTime="0.00" timeLoss="29.25" rerouteNo="1" devices="tripinfo_CalambatoBalibago.2 routing_CalambatoBalibago.2" vType="jeep" speedFactor="1.00" vaporized=""/>
    <tripinfo id="StaRosatoBalibago.0" depart="5.30" departLane="92878383#0_1" departPos="2.30" departPosLat="0.00" departSpeed="8.79" departDelay="0.00" arrival="316.00" arrivalLane="-32083237#0_1" arrivalPos="36.46" arrivalPosLat="0.00" arrivalSpeed="15.72" duration="310.70" routeLength="1364.26" waitingTime="153.30" waitingCount="4" stopTime="0.00" timeLoss="183.61" rerouteNo="1" devices="tripinfo_StaRosatoBalibago.0 routing_StaRosatoBalibago.0" vType="tricycle" speedFactor="1.06" vaporized=""/>
    <personinfo id="JollibeetoSTI.1" depart="45.00" type="ped" speedFactor="1.00" duration="272.00" waitingTime="1.50" timeLoss="30.33" traveltime="272.00">
        <walk depart="45.00" departPos="10.42" arrival="317.00" arrivalPos="19.02" duration="272.00" routeLength="335.01" timeLoss="30.33" maxSpeed="1.39" waitingTime="1.50"/>
    </personinfo>
    <personinfo id="STItoSakayan.0" depart="0.00" type="ped" speedFactor="0.93" duration="320.70" waitingTime="0.00" timeLoss="31.65" traveltime="320.70">
        <walk depart="0.00" departPos="25.00" arrival="320.70" arrivalPos="27.04" duration="320.70" routeLength="373.08" timeLoss="31.65" maxSpeed="1.29" waitingTime="0.00"/>
    </personinfo>
    <tripinfo id="StaRosatoBalibago.2" depart="44.70" departLane="92878383#0_1" departPos="2.30" departPosLat="0.00" departSpeed="9.16" departDelay="0.00" arrival="322.80" arrivalLane="-32083237#0_1" arrivalPos="36.46" arrivalPosLat="0.00" arrivalSpeed="15.15" duration="278.10" routeLength="1364.26" waitingTime="114.50" waitingCount="5" stopTime="0.00" timeLoss="156.15" rerouteNo="1" devices="tripinfo_StaRosatoBalibago.2 routing_StaRosatoBalibago.2" vType="tricycle" speedFactor="1.10" vaporized=""/>
    <personinfo id="PalengketoJollibee.4" depart="180.00" type="ped" speedFactor="0.94" duration="143.30" waitingTime="2.70" timeLoss="16.89" traveltime="143.30">
        <walk depart="180.00" departPos="25.00" arrival="323.30" arrivalPos="5.21" duration="143.30" routeLength="164.52" timeLoss="16.89" maxSpeed="1.30" waitingTime="2.70"/>
    </personinfo>
    <personinfo id="STItoSakayan.1" depart="45.00" type="ped" speedFactor="1.06" duration="284.50" waitingTime="1.60" timeLoss="30.27" traveltime="284.50">
        <walk depart="45.00" departPos="25.00" arrival="329.50" arrivalPos="27.04" duration="284.50" routeLength="373.08" timeLoss="30.27" maxSpeed="1.47" waitingTime="1.60"/>
    </personinfo>
    <tripinfo id="NuvalitoCalamba.1" depart="121.00" departLane="-145507700#3_2" departPos="2.30" departPosLat="0.00" departSpeed="30.60" departDelay="0.00" arrival="329.90" arrivalLane="-185930141#0_1" arrivalPos="428.88" arrivalPosLat="0.00" arrivalSpeed="30.54" duration="208.90" routeLength="2324.56" waitingTime="106.40" waitingCount="3" stopTime="0.00" timeLoss="131.83" rerouteNo="1" devices="tripinfo_NuvalitoCalamba.1 routing_NuvalitoCalamba.1" vType="motorcycle" speedFactor="1.10" vaporized=""/>
    <tripinfo id="CalambatoBalibago.3" depart="267.10" departLane="185930141#0_2" departPos="8.10" departPosLat="0.00" departSpeed="27.78" departDelay="0.00" arrival="331.60" arrivalLane="89908334_1" arrivalPos="36.84" arrivalPosLat="0.00" arrivalSpeed="9.08" duration="64.50" routeLength="908.17" waitingTime="0.00" waitingCount="0" stopTime="0.00" timeLoss="23.28" rerouteNo="1" devices="tripinfo_CalambatoBalibago.3 routing_CalambatoBalibago.3" vType="jeep" speedFactor="1.00" vaporized=""/>
    <tripinfo id="BiñantoNuvali.0" depart="70.30" departLane="553887793#0_1" departPos="2.30" departPosLat="0.00" departSpeed="33.73" departDelay="0.00" arrival="332.80" arrivalLane="145507700#3_1" arrivalPos="783.31" arrivalPosLat="-0.00" arrivalSpeed="33.73" duration="262.50" routeLength="2086.53" waitingTime="162.70" waitingCount="3" stopTime="0.00" timeLoss="199.72" rerouteNo="1" devices="tripinfo_BiñantoNuvali.0 routing_BiñantoNuvali.0" vType="tricycle" speedFactor="1.21" vaporized=""/>
    <tripinfo id="BalibagotoCalamba.2" depart="85.30" departLane="145507698_1" departPos="2.30" departPosLat="0.00" departSpeed="0.81" departDelay="0.10" arrival="337.00" arrivalLane="-185930141#0_1" arrivalPos="428.88" arrivalPosLat="0.00" arrivalSpeed="29.39" duration="251.70" routeLength="1528.84" waitingTime="126.30" waitingCount="1" stopTime="0.00" timeLoss="172.00" rerouteNo="1" devices="tripinfo_BalibagotoCalamba.2 routing_BalibagotoCalamba.2" vType="tricycle" speedFactor="1.06" vaporized=""/>
    <tripinfo id="BalibagotoCalamba.1" depart="80.90" departLane="145507698_1" departPos="7.55" departPosLat="0.00" departSpeed="0.00" departDelay="0.00" arrival="343.80" arrivalLane="-185930141#0_2" arrivalPos="428.88" arrivalPosLat="0.00" arrivalSpeed="27.74" duration="262.90" routeLength="1526.74" waitingTime="134.40" waitingCount="1" stopTime="0.00" timeLoss="178.34" rerouteNo="1" devices="tripinfo_BalibagotoCalamba.1 routing_BalibagotoCalamba.1" vType="bus" speedFactor="1.00" vaporized=""/>
    <tripinfo id="BiñantoCalamba.0" depart="21.20" departLane="553887793#0_1" departPos="8.10" departPosLat="0.00" departSpeed="27.78" departDelay="0.00" arrival="344.20" arrivalLane="-185930141#0_1" arrivalPos="428.88" arrivalPosLat="0.00" arrivalSpeed="27.77" duration="323.00" routeLength="1504.67" waitingTime="224.40" waitingCount="2" stopTime="0.00" timeLoss="268.77" rerouteNo="1" devices="tripinfo_BiñantoCalamba.0 routing_BiñantoCalamba.0" vType="jeep" speedFactor="1.00" vaporized=""/>
    <tripinfo id="StaRosatoCalamba.1" depart="93.90" departLane="92878383#0_1" departPos="2.30" departPosLat="0.00" departSpeed="7.67" departDelay="0.00" arrival="346.10" arrivalLane="-185930141#0_1" arrivalPos="428.88" arrivalPosLat="0.00" arrivalSpeed="25.55" duration="252.20" routeLength="1858.26" waitingTime="45.10" waitingCount="2" stopTime="0.00" timeLoss="89.20" rerouteNo="1" devices="tripinfo_StaRosatoCalamba.1 routing_StaRosatoCalamba.1" vType="tricycle" speedFactor="0.92" vaporized=""/>
    <tripinfo id="BiñantoCalamba.1" depart="178.20" departLane="553887793#0_1" departPos="5.10" departPosLat="0.00" departSpeed="24.38" departDelay="0.00" arrival="346.40" arrivalLane="-185930141#0_2" arrivalPos="428.88" arrivalPosLat="0.00" arrivalSpeed="24.27" duration="168.20" routeLength="1507.67" waitingTime="79.40" waitingCount="1" stopTime="0.00" timeLoss="106.28" rerouteNo="1" devices="tripinfo_BiñantoCalamba.1 routing_BiñantoCalamba.1" vType="car" speedFactor="0.88" vaporized=""/>
    <tripinfo id="StaRosatoCalamba.0" depart="77.50" departLane="92878383#0_1" departPos="2.30" departPosLat="0.00" departSpeed="4.85" departDelay="0.00" arrival="347.60" arrivalLane="-185930141#0_2" arrivalPos="428.88" arrivalPosLat="0.00" arrivalSpeed="26.29" duration="270.10" routeLength="1858.26" waitingTime="69.40" waitingCount="3" stopTime="0.00" timeLoss="117.26" rerouteNo="1" devices="tripinfo_StaRosatoCalamba.0 routing_StaRosatoCalamba.0" vType="tricycle" speedFactor="0.98" vaporized=""/>
    <tripinfo id="StaRosatoCalamba.2" depart="94.90" departLane="92878383#0_1" departPos="5.10" departPosLat="0.00" departSpeed="2.18" departDelay="0.20" arrival="348.60" arrivalLane="-185930141#0_1" arrivalPos="428.88" arrivalPosLat="0.00" arrivalSpeed="27.28" duration="253.70" routeLength="1855.46" waitingTime="38.70" waitingCount="3" stopTime="0.00" timeLoss="101.81" rerouteNo="1" devices="tripinfo_StaRosatoCalamba.2 routing_StaRosatoCalamba.2" vType="car" speedFactor="0.99" vaporized=""/>
    <tripinfo id="NuvalitoCalamba.2" depart="127.60" departLane="-145507700#3_1" departPos="5.10" departPosLat="0.00" departSpeed="27.38" departDelay="0.00" arrival="349.80" arrivalLane="-185930141#0_1" arrivalPos="428.88" arrivalPosLat="-0.00" arrivalSpeed="27.26" duration="222.20" routeLength="2321.76" waitingTime="84.10" waitingCount="2" stopTime="0.00" timeLoss="136.20" rerouteNo="1" devices="tripinfo_NuvalitoCalamba.2 routing_NuvalitoCalamba.2" vType="car" speedFactor="0.99" vaporized=""/>
    <tripinfo id="NuvalitoCalamba.3" depart="205.50" departLane="-145507700#3_1" departPos="5.10" departPosLat="0.00" departSpeed="28.37" departDelay="0.00" arrival="350.00" arrivalLane="-185930141#0_2" arrivalPos="428.88" arrivalPosLat="0.00" arrivalSpeed="28.25" duration="144.50" routeLength="2321.76" waitingTime="9.50" waitingCount="1" stopTime="0.00" timeLoss="61.45" rerouteNo="1" devices="tripinfo_NuvalitoCalamba.3 routing_NuvalitoCalamba.3" vType="car" speedFactor="1.02" vaporized=""/>
    <tripinfo id="BiñantoNuvali.1" depart="251.40" departLane="553887793#0_1" departPos="5.10" departPosLat="0.00" departSpeed="23.05" departDelay="0.00" arrival="353.10" arrivalLane="145507700#3_1" arrivalPos="783.31" arrivalPosLat="-0.00" arrivalSpeed="23.03" duration="101.70" routeLength="2083.73" waitingTime="0.00" waitingCount="0" stopTime="0.00" timeLoss="10.05" rerouteNo="1" devices="tripinfo_BiñantoNuvali.1 routing_BiñantoNuvali.1" vType="car" speedFactor="0.83" vaporized=""/>
    <personinfo id="JollibeetoSTI.2" depart="90.00" type="ped" speedFactor="1.02" duration="264.60" waitingTime="1.10" timeLoss="27.40" traveltime="264.60">
        <walk depart="90.00" departPos="10.42" arrival="354.60" arrivalPos="19.02" duration="264.60" routeLength="335.01" timeLoss="27.40" maxSpeed="1.41" waitingTime="1.10"/>
    </personinfo>
    <personinfo id="PalengketoSTI.2" depart="90.00" type="ped" speedFactor="1.02" duration="268.20" waitingTime="4.20" timeLoss="31.30" traveltime="268.20">
        <walk depart="90.00" departPos="10.42" arrival="358.20" arrivalPos="19.02" duration="268.20" routeLength="335.01" timeLoss="31.30" maxSpeed="1.41" waitingTime="4.20"/>
    </personinfo>
    <tripinfo id="BalibagotoNuvali.2" depart="289.70" departLane="777619905_1" departPos="2.30" departPosLat="0.00" departSpeed="5.50" departDelay="0.00" arrival="358.60" arrivalLane="145507700#3_1" arrivalPos="783.31" arrivalPosLat="-0.00" arrivalSpeed="28.83" duration="68.90" routeLength="1315.67" waitingTime="1.20" waitingCount="1" stopTime="0.00" timeLoss="17.64" rerouteNo="1" devices="tripinfo_BalibagotoNuvali.2 routing_BalibagotoNuvali.2" vType="tricycle" speedFactor="1.04" vaporized=""/>
    <personinfo id="PalengketoJollibee.5" depart="225.00" type="ped" speedFactor="1.01" duration="139.60" waitingTime="9.00" timeLoss="22.01" traveltime="139.60">
        <walk depart="225.00" departPos="25.00" arrival="364.60" arrivalPos="5.21" duration="139.60" routeLength="164.52" timeLoss="22.01" maxSpeed="1.40" waitingTime="9.00"/>
    </personinfo>
    <personinfo id="STItoSakayan.2" depart="90.00" type="ped" speedFactor="1.10" duration="274.80" waitingTime="0.50" timeLoss="29.84" traveltime="274.80">
        <walk depart="90.00" departPos="25.00" arrival="364.80" arrivalPos="27.04" duration="274.80" routeLength="373.08" timeLoss="29.84" maxSpeed="1.52" waitingTime="0.50"/>
    </personinfo>
    <tripinfo id="StaRosatoBalibago.1" depart="9.80" departLane="92878383#0_1" departPos="8.10" departPosLat="0.00" departSpeed="8.33" departDelay="0.00" arrival="367.50" arrivalLane="-32083237#0_1" arrivalPos="36.46" arrivalPosLat="0.00" arrivalSpeed="11.02" duration="357.70" routeLength="1358.46" waitingTime="168.20" waitingCount="5" stopTime="0.00" timeLoss="224.34" rerouteNo="1" devices="tripinfo_StaRosatoBalibago.1 routing_StaRosatoBalibago.1" vType="jeep" speedFactor="1.00" vaporized=""/>
    <tripinfo id="BalibagotoCalamba.3" depart="277.20" departLane="145507698_1" departPos="2.30" departPosLat="0.00" departSpeed="9.75" departDelay="0.00" arrival="372.20" arrivalLane="-185930141#0_2" arrivalPos="428.88" arrivalPosLat="0.00" arrivalSpeed="31.86" duration="95.00" routeLength="1531.99" waitingTime="0.20" waitingCount="1" stopTime="0.00" timeLoss="21.02" rerouteNo="1" devices="tripinfo_BalibagotoCalamba.3 routing_BalibagotoCalamba.3" vType="tricycle" speedFactor="1.15" vaporized=""/>
    <personinfo id="JollibeetoPalengke.5" depart="225.00" type="ped" speedFactor="0.83" duration="151.70" waitingTime="0.60" timeLoss="15.43" traveltime="151.70">
        <walk depart="225.00" departPos="10.42" arrival="376.70" arrivalPos="27.04" duration="151.70" routeLength="157.27" timeLoss="15.43" maxSpeed="1.15" waitingTime="0.60"/>
    </personinfo>
    <tripinfo id="NuvalitoBiñan.2" depart="271.60" departLane="-145507700#3_1" departPos="2.30" departPosLat="0.00" departSpeed="24.26" departDelay="0.00" arrival="377.20" arrivalLane="-553887793#0_2" arrivalPos="201.31" arrivalPosLat="0.00" arrivalSpeed="24.14" duration="105.60" routeLength="2096.19" waitingTime="10.20" waitingCount="1" stopTime="0.00" timeLoss="17.58" rerouteNo="1" devices="tripinfo_NuvalitoBiñan.2 routing_NuvalitoBiñan.2" vType="motorcycle" speedFactor="0.87" vaporized=""/>
    <personinfo id="PalengketoSTI.3" depart="135.00" type="ped" speedFactor="1.09" duration="248.30" waitingTime="2.10" timeLoss="26.95" traveltime="248.30">
        <walk depart="135.00" departPos="10.42" arrival="383.30" arrivalPos="19.02" duration="248.30" routeLength="335.01" timeLoss="26.95" maxSpeed="1.51" waitingTime="2.10"/>
    </personinfo>
    <tripinfo id="StaRosatoBalibago.4" depart="79.30" departLane="92878383#0_1" departPos="8.10" departPosLat="0.00" departSpeed="2.20" departDelay="1.40" arrival="386.80" arrivalLane="-32083237#0_1" arrivalPos="36.46" arrivalPosLat="0.00" arrivalSpeed="11.28" duration="307.50" routeLength="1358.46" waitingTime="95.20" waitingCount="6" stopTime="0.00" timeLoss="174.17" rerouteNo="1" devices="tripinfo_StaRosatoBalibago.4 routing_StaRosatoBalibago.4" vType="jeep" speedFactor="1.00" vaporized=""/>
    <personinfo id="JollibeetoPalengke.6" depart="270.00" type="ped" speedFactor="1.05" duration="120.20" waitingTime="0.00" timeLoss="11.92" traveltime="120.20">
        <walk depart="270.00" departPos="10.42" arrival="390.20" arrivalPos="27.04" duration="120.20" routeLength="157.27" timeLoss="11.92" maxSpeed="1.45" waitingTime="0.00"/>