<?xml version="1.0" encoding="UTF-8"?>

<!-- generated on 2026-02-21 10:48:16 by Eclipse SUMO sumo Version 1.24.0
<sumoConfiguration xmlns:xsi="http://www.w3.org/2001/XMLSchema-instance" xsi:noNamespaceSchemaLocation="http://sumo.dlr.de/xsd/sumoConfiguration.xsd">

    <input>
        <net-file value="Balibago_traci/network/balibago_signalized.net.xml"/>
        <route-files value="Balibago_traci/demand/flows_training.rou.xml"/>
        <additional-files value="Balibago_traci/additionals/balibago.poly.xml,Balibago_traci/ additionals/balibago.add.xml"/>
    </input>

    <output>
        <tripinfo-output value="Balibago_traci/output_DDPG/normal_baseline_trips.xml"/>
        <statistic-output value="Balibago_traci/output_DDPG/normal_baseline_stats.xml"/>
    </output>

    <time>
        <begin value="0"/>
        <end value="10800"/>
        <step-length value="0.1"/>
    </time>

    <processing>
        <lateral-resolution value="0.1"/>
        <collision.action value="none"/>
        <collision.check-junctions value="false"/>
        <collision.mingap-factor value="0"/>
    </processing>

    <report>
        <no-warnings value="true"/>
    </report>

    <traci_server>
        <remote-port value="8815"/>
    </traci_server>

    <gui_only>
        <delay value="0"/>
    </gui_only>

</sumoConfiguration>
-->

<tripinfos xmlns:xsi="http://www.w3.org/2001/XMLSchema-instance" xsi:noNamespaceSchemaLocation="http://sumo.dlr.de/xsd/tripinfo_file.xsd">
    <tripinfo id="NuvalitoBiñan_1.0" depart="0.70" departLane="-145507700#3_1" departPos="2.30" departPosLat="0.00" departSpeed="29.34" departDelay="0.00" arrival="83.20" arrivalLane="-553887793#0_2" arrivalPos="201.31" arrivalPosLat="0.00" arrivalSpeed="29.28" duration="82.50" routeLength="2096.19" waitingTime="0.00" waitingCount="0" stopTime="0.00" timeLoss="9.84" rerouteNo="1" devices="tripinfo_NuvalitoBiñan_1.0 routing_NuvalitoBiñan_1.0" vType="tricycle" speedFactor="1.06" vaporized=""/>
    <tripinfo id="BalibagotoNuvali_1.0" depart="9.20" departLane="777619905_1" departPos="5.10" departPosLat="0.00" departSpeed="0.00" departDelay="0.00" arrival="85.80" arrivalLane="145507700#3_1" arrivalPos="783.31" arrivalPosLat="-0.00" arrivalSpeed="27.75" duration="76.60" routeLength="1312.87" waitingTime="0.00" waitingCount="0" stopTime="0.00" timeLoss="23.56" rerouteNo="1" devices="tripinfo_BalibagotoNuvali_1.0 routing_BalibagotoNuvali_1.0" vType="jeep" speedFactor="1.00" vaporized=""/>
    <tripinfo id="BiñantoBalibago_1.0" depart="52.30" departLane="553887793#0_1" departPos="2.30" departPosLat="0.00" departSpeed="32.04" departDelay="0.00" arrival="101.40" arrivalLane="-32083237#0_1" arrivalPos="36.46" arrivalPosLat="0.00" arrivalSpeed="15.13" duration="49.10" routeLength="1002.13" waitingTime="0.00" waitingCount="0" stopTime="0.00" timeLoss="14.63" rerouteNo="1" devices="tripinfo_BiñantoBalibago_1.0 routing_BiñantoBalibago_1.0" vType="tricycle" speedFactor="1.15" vaporized=""/>
    <personinfo id="pf_JollibeetoPalengke_1.0" depart="0.00" type="ped" speedFactor="1.06" duration="118.40" waitingTime="0.00" timeLoss="11.57" traveltime="118.40">
        <walk depart="0.00" departPos="10.42" arrival="118.40" arrivalPos="27.04" duration="118.40" routeLength="157.27" timeLoss="11.57" maxSpeed="1.47" waitingTime="0.00"/>
    </personinfo>
    <personinfo id="pf_PalengketoJollibee_1.0" depart="0.00" type="ped" speedFactor="0.89" duration="147.50" waitingTime="0.00" timeLoss="14.67" traveltime="147.50">
        <walk depart="0.00" departPos="25.00" arrival="147.50" arrivalPos="5.21" duration="147.50" routeLength="164.52" timeLoss="14.67" maxSpeed="1.24" waitingTime="0.00"/>
    </personinfo>
    <tripinfo id="BiñantoNuvali_1.0" depart="70.30" departLane="553887793#0_1" departPos="5.10" departPosLat="0.00" departSpeed="32.88" departDelay="0.00" arrival="150.10" arrivalLane="145507700#3_1" arrivalPos="783.31" arrivalPosLat="-0.00" arrivalSpeed="32.83" duration="79.80" routeLength="2083.73" waitingTime="0.00" waitingCount="0" stopTime="0.00" timeLoss="15.55" rerouteNo="1" devices="tripinfo_BiñantoNuvali_1.0 routing_BiñantoNuvali_1.0" vType="car" speedFactor="1.18" vaporized=""/>
    <tripinfo id="BiñantoBalibago_1.1" depart="90.20" departLane="553887793#0_1" departPos="8.10" departPosLat="0.00" departSpeed="27.78" departDelay="0.00" arrival="153.10" arrivalLane="-32083237#0_1" arrivalPos="36.46" arrivalPosLat="0.00" arrivalSpeed="11.27" duration="62.90" routeLength="996.33" waitingTime="0.00" waitingCount="0" stopTime="0.00" timeLoss="23.30" rerouteNo="1" devices="tripinfo_BiñantoBalibago_1.1 routing_BiñantoBalibago_1.1" vType="jeep" speedFactor="1.00" vaporized=""/>
    <tripinfo id="BalibagotoCalamba_1.0" depart="40.60" departLane="145507698_1" departPos="2.30" departPosLat="0.00" departSpeed="0.61" departDelay="0.20" arrival="155.90" arrivalLane="-185930141#0_1" arrivalPos="428.88" arrivalPosLat="0.00" arrivalSpeed="30.31" duration="115.30" routeLength="1531.99" waitingTime="9.00" waitingCount="1" stopTime="0.00" timeLoss="37.54" rerouteNo="1" devices="tripinfo_BalibagotoCalamba_1.0 routing_BalibagotoCalamba_1.0" vType="tricycle" speedFactor="1.09" vaporized=""/>
    <tripinfo id="NuvalitoCalamba_1.0" depart="45.30" departLane="-145507700#3_1" departPos="5.10" departPosLat="0.00" departSpeed="23.08" departDelay="0.00" arrival="160.90" arrivalLane="-185930141#0_1" arrivalPos="428.88" arrivalPosLat="-0.00" arrivalSpeed="22.95" duration="115.60" routeLength="2321.76" waitingTime="0.00" waitingCount="0" stopTime="0.00" timeLoss="13.55" rerouteNo="1" devices="tripinfo_NuvalitoCalamba_1.0 routing_NuvalitoCalamba_1.0" vType="car" speedFactor="0.83" vaporized=""/>
    <personinfo id="pf_JollibeetoPalengke_1.1" depart="60.00" type="ped" speedFactor="0.94" duration="134.10" waitingTime="0.00" timeLoss="13.42" traveltime="134.10">
        <walk depart="60.00" departPos="10.42" arrival="194.10" arrivalPos="27.04" duration="134.10" routeLength="157.27" timeLoss="13.42" maxSpeed="1.30" waitingTime="0.00"/>
    </personinfo>
    <personinfo id="pf_PalengketoJollibee_1.1" depart="72.00" type="ped" speedFactor="0.83" duration="158.10" waitingTime="0.00" timeLoss="16.00" traveltime="158.10">
        <walk depart="72.00" departPos="25.00" arrival="230.10" arrivalPos="5.21" duration="158.10" routeLength="164.52" timeLoss="16.00" maxSpeed="1.16" waitingTime="0.00"/>
    </personinfo>
    <personinfo id="pf_JollibeetoSTI_1.0" depart="0.00" type="ped" speedFactor="1.18" duration="230.90" waitingTime="1.10" timeLoss="26.24" traveltime="230.90">
        <walk depart="0.00" departPos="10.42" arrival="230.90" arrivalPos="19.02" duration="230.90" routeLength="335.01" timeLoss="26.24" maxSpeed="1.64" waitingTime="1.10"/>
    </personinfo>
    <tripinfo id="CalambatoBiñan_1.0" depart="32.70" departLane="185930141#0_1" departPos="8.10" departPosLat="0.00" departSpeed="27.78" departDelay="0.00" arrival="236.60" arrivalLane="-553887793#0_1" arrivalPos="201.31" arrivalPosLat="0.00" arrivalSpeed="27.78" duration="203.90" routeLength="1504.67" waitingTime="123.40" waitingCount="1" stopTime="0.00" timeLoss="149.69" rerouteNo="1" devices="tripinfo_CalambatoBiñan_1.0 routing_CalambatoBiñan_1.0" vType="jeep" speedFactor="1.00" vaporized=""/>
    <tripinfo id="BalibagotoBiñan_1.0" depart="37.20" departLane="145507698_1" departPos="7.55" departPosLat="0.00" departSpeed="0.00" departDelay="0.00" arrival="237.00" arrivalLane="-553887793#0_2" arrivalPos="201.31" arrivalPosLat="0.00" arrivalSpeed="27.76" duration="199.80" routeLength="1682.41" waitingTime="54.70" waitingCount="1" stopTime="0.00" timeLoss="109.85" rerouteNo="1" devices="tripinfo_BalibagotoBiñan_1.0 routing_BalibagotoBiñan_1.0" vType="jeep" speedFactor="1.00" vaporized=""/>
    <tripinfo id="CalambatoBalibago_1.0" depart="150.70" departLane="185930141#0_2" departPos="2.30" departPosLat="0.00" departSpeed="32.63" departDelay="0.00" arrival="239.50" arrivalLane="89908334_1" arrivalPos="36.84" arrivalPosLat="0.00" arrivalSpeed="11.19" duration="88.80" routeLength="913.97" waitingTime="33.40" waitingCount="1" stopTime="0.00" timeLoss="53.41" rerouteNo="1" devices="tripinfo_CalambatoBalibago_1.0 routing_CalambatoBalibago_1.0" vType="tricycle" speedFactor="1.17" vaporized=""/>
    <tripinfo id="NuvalitoCalamba_1.1" depart="121.00" departLane="-145507700#3_2" departPos="5.10" departPosLat="0.00" departSpeed="29.22" departDelay="0.00" arrival="240.60" arrivalLane="-185930141#0_1" arrivalPos="428.88" arrivalPosLat="-0.00" arrivalSpeed="29.13" duration="119.60" routeLength="2321.76" waitingTime="10.10" waitingCount="1" stopTime="0.00" timeLoss="39.08" rerouteNo="1" devices="tripinfo_NuvalitoCalamba_1.1 routing_NuvalitoCalamba_1.1" vType="car" speedFactor="1.05" vaporized=""/>
    <personinfo id="pf_JollibeetoPalengke_1.2" depart="120.00" type="ped" speedFactor="1.01" duration="124.80" waitingTime="0.00" timeLoss="12.73" traveltime="124.80">
        <walk depart="120.00" departPos="10.42" arrival="244.80" arrivalPos="27.04" duration="124.80" routeLength="157.27" timeLoss="12.73" maxSpeed="1.40" waitingTime="0.00"/>
    </personinfo>
    <tripinfo id="BalibagotoCalamba_1.1" depart="80.90" departLane="145507698_1" departPos="2.30" departPosLat="0.00" departSpeed="9.75" departDelay="0.00" arrival="244.80" arrivalLane="-185930141#0_2" arrivalPos="428.88" arrivalPosLat="0.00" arrivalSpeed="25.72" duration="163.90" routeLength="1531.99" waitingTime="51.30" waitingCount="1" stopTime="0.00" timeLoss="72.52" rerouteNo="1" devices="tripinfo_BalibagotoCalamba_1.1 routing_BalibagotoCalamba_1.1" vType="tricycle" speedFactor="0.93" vaporized=""/>
    <tripinfo id="BalibagotoStaRosa_1.0" depart="55.40" departLane="145507698_1" departPos="2.30" departPosLat="0.00" departSpeed="9.75" departDelay="0.00" arrival="247.20" arrivalLane="-92878383#0_1" arrivalPos="603.68" arrivalPosLat="0.00" arrivalSpeed="9.01" duration="191.80" routeLength="1991.73" waitingTime="0.00" waitingCount="0" stopTime="0.00" timeLoss="16.69" rerouteNo="1" devices="tripinfo_BalibagotoStaRosa_1.0 routing_BalibagotoStaRosa_1.0" vType="tricycle" speedFactor="1.08" vaporized=""/>
    <tripinfo id="NuvalitoCalamba_1.2" depart="127.60" departLane="-145507700#3_1" departPos="12.10" departPosLat="0.00" departSpeed="27.78" departDelay="0.00" arrival="248.00" arrivalLane="-185930141#0_1" arrivalPos="428.88" arrivalPosLat="1.05" arrivalSpeed="27.76" duration="120.40" routeLength="2314.76" waitingTime="0.00" waitingCount="0" stopTime="0.00" timeLoss="35.91" rerouteNo="1" devices="tripinfo_NuvalitoCalamba_1.2 routing_NuvalitoCalamba_1.2" vType="bus" speedFactor="1.00" vaporized=""/>
    <personinfo id="pf_STItoSakayan_1.0" depart="0.00" type="ped" speedFactor="1.18" duration="253.70" waitingTime="0.00" timeLoss="25.50" traveltime="253.70">
        <walk depart="0.00" departPos="25.00" arrival="253.70" arrivalPos="27.04" duration="253.70" routeLength="373.08" timeLoss="25.50" maxSpeed="1.63" waitingTime="0.00"/>
    </personinfo>
    <tripinfo id="NuvalitoStaRosa_1.0" depart="56.20" departLane="-145507700#3_2" departPos="5.10" departPosLat="0.00" departSpeed="27.99" departDelay="0.00" arrival="263.40" arrivalLane="-92878383#0_1" arrivalPos="603.68" arrivalPosLat="-0.00" arrivalSpeed="8.35" duration="207.20" routeLength="2600.04" waitingTime="6.20" waitingCount="1" stopTime="0.00" timeLoss="23.96" rerouteNo="1" devices="tripinfo_NuvalitoStaRosa_1.0 routing_NuvalitoStaRosa_1.0" vType="car" speedFactor="1.01" vaporized=""/>
    <tripinfo id="CalambatoNuvali_1.0" depart="49.20" departLane="185930141#0_2" departPos="5.10" departPosLat="0.00" departSpeed="31.59" departDelay="0.00" arrival="268.50" arrivalLane="145507700#3_1" arrivalPos="783.31" arrivalPosLat="-0.00" arrivalSpeed="31.48" duration="219.30" routeLength="2332.87" waitingTime="116.40" waitingCount="2" stopTime="0.00" timeLoss="144.02" rerouteNo="1" devices="tripinfo_CalambatoNuvali_1.0 routing_CalambatoNuvali_1.0" vType="car" speedFactor="1.14" vaporized=""/>
    <tripinfo id="NuvalitoStaRosa_1.1" depart="76.20" departLane="-145507700#3_1" departPos="8.10" departPosLat="0.00" departSpeed="27.78" departDelay="0.00" arrival="279.00" arrivalLane="-92878383#0_1" arrivalPos="603.68" arrivalPosLat="-0.00" arrivalSpeed="8.29" duration="202.80" routeLength="2597.04" waitingTime="0.00" waitingCount="0" stopTime="0.00" timeLoss="18.26" rerouteNo="1" devices="tripinfo_NuvalitoStaRosa_1.1 routing_NuvalitoStaRosa_1.1" vType="jeep" speedFactor="1.00" vaporized=""/>
    <personinfo id="pf_PalengketoJollibee_1.2" depart="144.00" type="ped" speedFactor="0.92" duration="143.00" waitingTime="0.00" timeLoss="14.44" traveltime="143.00">
        <walk depart="144.00" departPos="25.00" arrival="287.00" arrivalPos="5.21" duration="143.00" routeLength="164.52" timeLoss="14.44" maxSpeed="1.28" waitingTime="0.00"/>
    </personinfo>
    <personinfo id="pf_JollibeetoPalengke_1.3" depart="180.00" type="ped" speedFactor="1.08" duration="119.40" waitingTime="3.00" timeLoss="14.81" traveltime="119.40">
        <walk depart="180.00" departPos="10.42" arrival="299.40" arrivalPos="27.04" duration="119.40" routeLength="157.27" timeLoss="14.81" maxSpeed="1.50" waitingTime="3.00"/>
    </personinfo>
    <tripinfo id="NuvalitoStaRosa_1.2" depart="111.10" departLane="-145507700#3_1" departPos="5.10" departPosLat="0.00" departSpeed="27.84" departDelay="0.00" arrival="308.20" arrivalLane="-92878383#0_1" arrivalPos="603.68" arrivalPosLat="-0.00" arrivalSpeed="8.34" duration="197.10" routeLength="2600.04" waitingTime="0.00" waitingCount="0" stopTime="0.00" timeLoss="12.84" rerouteNo="1" devices="tripinfo_NuvalitoStaRosa_1.2 routing_NuvalitoStaRosa_1.2" vType="car" speedFactor="1.00" vaporized=""/>
    <personinfo id="pf_JollibeetoSTI_1.1" depart="80.00" type="ped" speedFactor="1.15" duration="232.20" waitingTime="0.00" timeLoss="23.25" traveltime="232.20">
        <walk depart="80.00" departPos="10.42" arrival="312.20" arrivalPos="19.02" duration="232.20" routeLength="335.01" timeLoss="23.25" maxSpeed="1.60" waitingTime="0.00"/>
    </personinfo>
    <tripinfo id="BalibagotoBiñan_1.1" depart="185.50" departLane="145507698_1" departPos="7.55" departPosLat="0.00" departSpeed="0.00" departDelay="0.00" arrival="313.00" arrivalLane="-553887793#0_2" arrivalPos="201.31" arrivalPosLat="0.00" arrivalSpeed="27.76" duration="127.50" routeLength="1682.41" waitingTime="0.00" waitingCount="0" stopTime="0.00" timeLoss="37.36" rerouteNo="1" devices="tripinfo_BalibagotoBiñan_1.1 routing_BalibagotoBiñan_1.1" vType="jeep" speedFactor="1.00" vaporized=""/>
    <tripinfo id="BiñantoCalamba_1.0" depart="178.20" departLane="553887793#0_1" departPos="7.20" departPosLat="0.00" departSpeed="27.64" departDelay="0.00" arrival="332.20" arrivalLane="-185930141#0_1" arrivalPos="428.88" arrivalPosLat="0.00" arrivalSpeed="27.63" duration="154.00" routeLength="1505.57" waitingTime="61.10" waitingCount="2" stopTime="0.00" timeLoss="99.46" rerouteNo="1" devices="tripinfo_BiñantoCalamba_1.0 routing_BiñantoCalamba_1.0" vType="truck" speedFactor="0.99" vaporized=""/>
    <tripinfo id="CalambatoBiñan_1.1" depart="252.30" departLane="185930141#0_1" departPos="5.10" departPosLat="0.00" departSpeed="27.85" departDelay="0.00" arrival="333.40" arrivalLane="-553887793#0_1" arrivalPos="201.31" arrivalPosLat="0.00" arrivalSpeed="27.80" duration="81.10" routeLength="1507.67" waitingTime="10.30" waitingCount="1" stopTime="0.00" timeLoss="26.88" rerouteNo="1" devices="tripinfo_CalambatoBiñan_1.1 routing_CalambatoBiñan_1.1" vType="car" speedFactor="1.00" vaporized=""/>
    <personinfo id="pf_PalengketoJollibee_1.3" depart="216.00" type="ped" speedFactor="1.09" duration="121.60" waitingTime="0.60" timeLoss="13.02" traveltime="121.60">
        <walk depart="216.00" departPos="25.00" arrival="337.60" arrivalPos="5.21" duration="121.60" routeLength="164.52" timeLoss="13.02" maxSpeed="1.52" waitingTime="0.60"/>
    </personinfo>
    <tripinfo id="CalambatoBalibago_1.1" depart="194.30" departLane="185930141#0_2" departPos="12.10" departPosLat="0.00" departSpeed="27.78" departDelay="0.00" arrival="341.10" arrivalLane="89908334_1" arrivalPos="36.84" arrivalPosLat="0.00" arrivalSpeed="8.67" duration="146.80" routeLength="904.17" waitingTime="73.80" waitingCount="2" stopTime="0.00" timeLoss="105.71" rerouteNo="1" devices="tripinfo_CalambatoBalibago_1.1 routing_CalambatoBalibago_1.1" vType="bus" speedFactor="1.00" vaporized=""/>
    <personinfo id="pf_JollibeetoPalengke_1.4" depart="240.00" type="ped" speedFactor="1.03" duration="122.00" waitingTime="0.00" timeLoss="12.09" traveltime="122.00">
        <walk depart="240.00" departPos="10.42" arrival="362.00" arrivalPos="27.04" duration="122.00" routeLength="157.27" timeLoss="12.09" maxSpeed="1.43" waitingTime="0.00"/>
    </personinfo>
    <tripinfo id="BiñantoStaRosa_1.0" depart="24.20" departLane="553887793#0_1" departPos="2.30" departPosLat="0.00" departSpeed="27.78" departDelay="0.00" arrival="374.00" arrivalLane="-92878383#0_1" arrivalPos="603.68" arrivalPosLat="-0.00" arrivalSpeed="8.26" duration="349.80" routeLength="1788.75" waitingTime="188.40" waitingCount="1" stopTime="0.00" timeLoss="195.55" rerouteNo="1" devices="tripinfo_BiñantoStaRosa_1.0 routing_BiñantoStaRosa_1.0" vType="motorcycle" speedFactor="1.00" vaporized=""/>
    <tripinfo id="StaRosatoBiñan_1.0" depart="38.20" departLane="92878383#0_1" departPos="8.10" departPosLat="0.00" departSpeed="8.33" departDelay="0.00" arrival="379.20" arrivalLane="-553887793#0_1" arrivalPos="201.31" arrivalPosLat="-0.00" arrivalSpeed="27.77" duration="341.00" routeLength="1604.72" waitingTime="185.00" waitingCount="1" stopTime="0.00" timeLoss="200.62" rerouteNo="1" devices="tripinfo_StaRosatoBiñan_1.0 routing_StaRosatoBiñan_1.0" vType="jeep" speedFactor="1.00" vaporized=""/>
    <tripinfo id="StaRosatoBiñan_1.1" depart="116.90" departLane="92878383#0_1" departPos="8.10" departPosLat="0.00" departSpeed="5.25" departDelay="0.90" arrival="380.50" arrivalLane="-553887793#0_1" arrivalPos="201.31" arrivalPosLat="-0.00" arrivalSpeed="27.72" duration="263.60" routeLength="1604.72" waitingTime="103.70" waitingCount="1" stopTime="0.00" timeLoss="123.28" rerouteNo="1" devices="tripinfo_StaRosatoBiñan_1.1 routing_StaRosatoBiñan_1.1" vType="jeep" speedFactor="1.00" vaporized=""/>
    <tripinfo id="StaRosatoBalibago_1.0" depart="5.30" departLane="92878383#0_1" departPos="8.10" departPosLat="0.00" departSpeed="8.33" departDelay="0.00" arrival="384.20" arrivalLane="-32083237#0_1" arrivalPos="36.46" arrivalPosLat="0.00" arrivalSpeed="11.45" duration="378.90" routeLength="1358.46" waitingTime="217.90" waitingCount="1" stopTime="0.00" timeLoss="245.49" rerouteNo="1" devices="tripinfo_StaRosatoBalibago_1.0 routing_StaRosatoBalibago_1.0" vType="jeep" speedFactor="1.00" vaporized=""/>
    <personinfo id="pf_STItoSakayan_1.1" depart="90.00" type="ped" speedFactor="1.00" duration="296.70" waitingTime="0.00" timeLoss="29.23" traveltime="296.70">
        <walk depart="90.00" departPos="25.00" arrival="386.70" arrivalPos="27.04" duration="296.70" routeLength="373.08" timeLoss="29.23" maxSpeed="1.39" waitingTime="0.00"/>
    </personinfo>
    <tripinfo id="StaRosatoBalibago_1.1" depart="76.60" departLane="92878383#0_1" departPos="12.10" departPosLat="0.00" departSpeed="8.33" departDelay="0.00" arrival="387.50" arrivalLane="-32083237#0_1" arrivalPos="36.46" arrivalPosLat="0.00" arrivalSpeed="11.16" duration="310.90" routeLength="1354.46" waitingTime="145.60" waitingCount="1" stopTime="0.00" timeLoss="178.04" rerouteNo="1" devices="tripinfo_StaRosatoBalibago_1.1 routing_StaRosatoBalibago_1.1" vType="bus" speedFactor="1.00" vaporized=""/>
    <tripinfo id="StaRosatoBalibago_1.2" depart="115.60" departLane="92878383#0_1" departPos="8.10" departPosLat="0.00" departSpeed="8.33" departDelay="0.00" arrival="391.30" arrivalLane="-32083237#0_1" arrivalPos="36.46" arrivalPosLat="0.00" arrivalSpeed="11.37" duration="275.70" routeLength="1358.46" waitingTime="99.70" waitingCount="2" stopTime="0.00" timeLoss="142.37" rerouteNo="1" devices="tripinfo_StaRosatoBalibago_1.2 routing_StaRosatoBalibago_1.2" vType="jeep" speedFactor="1.00" vaporized=""/>
    <tripinfo id="StaRosatoBalibago_1.3" depart="141.60" departLane="92878383#0_1" departPos="8.10" departPosLat="0.00" departSpeed="8.33" departDelay="0.00" arrival="394.60" arrivalLane="-32083237#0_1" arrivalPos="36.46" arrivalPosLat="0.00" arrivalSpeed="11.21" duration="253.00" routeLength="1358.46" waitingTime="76.30" waitingCount="2" stopTime="0.00" timeLoss="119.62" rerouteNo="1" devices="tripinfo_StaRosatoBalibago_1.3 routing_StaRosatoBalibago_1.3" vType="jeep" speedFactor="1.00" vaporized=""/>
    <tripinfo id="StaRosatoCalamba_1.0" depart="77.60" departLane="92878383#0_1" departPos="5.10" departPosLat="0.00" departSpeed="5.24" departDelay="0.10" arrival="400.20" arrivalLane="-185930141#0_1" arrivalPos="428.88" arrivalPosLat="-0.00" arrivalSpeed="32.52" duration="322.60" routeLength="1855.46" waitingTime="143.90" waitingCount="1" stopTime="0.00" timeLoss="195.13" rerouteNo="1" devices="tripinfo_StaRosatoCalamba_1.0 routing_StaRosatoCalamba_1.0" vType="car" speedFactor="1.17" vaporized=""/>
    <tripinfo id="StaRosatoBalibago_1.4" depart="187.70" departLane="92878383#0_1" departPos="2.30" departPosLat="0.00" departSpeed="9.35" departDelay="0.00" arrival="400.30" arrivalLane="-32083237#0_1" arrivalPos="36.46" arrivalPosLat="0.00" arrivalSpeed="15.54" duration="212.60" routeLength="1364.26" waitingTime="52.70" waitingCount="4" stopTime="0.00" timeLoss="93.14" rerouteNo="1" devices="tripinfo_StaRosatoBalibago_1.4 routing_StaRosatoBalibago_1.4" vType="tricycle" speedFactor="1.12" vaporized=""/>
    <tripinfo id="StaRosatoCalamba_1.3" depart="216.90" departLane="92878383#0_1" departPos="7.20" departPosLat="0.00" departSpeed="8.32" departDelay="0.00" arrival="404.60" arrivalLane="-185930141#0_1" arrivalPos="428.88" arrivalPosLat="-0.00" arrivalSpeed="27.70" duration="187.70" routeLength="1853.36" waitingTime="11.90" waitingCount="1" stopTime="0.00" timeLoss="38.07" rerouteNo="1" devices="tripinfo_StaRosatoCalamba_1.3 routing_StaRosatoCalamba_1.3" vType="truck" speedFactor="1.00" vaporized=""/>
    <tripinfo id="StaRosatoBalibago_1.5" depart="224.80" departLane="92878383#0_1" departPos="8.10" departPosLat="0.00" departSpeed="8.33" departDelay="0.00" arrival="407.20" arrivalLane="-32083237#0_1" arrivalPos="36.46" arrivalPosLat="0.00" arrivalSpeed="11.32" duration="182.40" routeLength="1358.46" waitingTime="11.10" waitingCount="1" stopTime="0.00" timeLoss="49.02" rerouteNo="1" devices="tripinfo_StaRosatoBalibago_1.5 routing_StaRosatoBalibago_1.5" vType="jeep" speedFactor="1.00" vaporized=""/>
    <personinfo id="pf_JollibeetoTarget_1.0" depart="0.00" type="ped" speedFactor="1.10" duration="408.70" waitingTime="2.10" timeLoss="44.01" traveltime="408.70">
        <walk depart="0.00" departPos="10.42" arrival="408.70" arrivalPos="16.04" duration="408.70" routeLength="555.05" timeLoss="44.01" maxSpeed="1.52" waitingTime="2.10"/>
    </personinfo>
    <tripinfo id="CalambatoBalibago_1.2" depart="238.20" departLane="185930141#0_2" departPos="8.10" departPosLat="0.00" departSpeed="27.78" departDelay="0.00" arrival="410.00" arrivalLane="89908334_1" arrivalPos="36.84" arrivalPosLat="0.00" arrivalSpeed="8.86" duration="171.80" routeLength="908.17" waitingTime="91.60" waitingCount="2" stopTime="0.00" timeLoss="130.56" rerouteNo="1" devices="tripinfo_CalambatoBalibago_1.2 routing_CalambatoBalibago_1.2" vType="jeep" speedFactor="1.00" vaporized=""/>
    <tripinfo id="BalibagotoCalamba_1.2" depart="277.20" departLane="145507698_1" departPos="7.55" departPosLat="0.00" departSpeed="0.00" departDelay="0.00" arrival="410.30" arrivalLane="-185930141#0_1" arrivalPos="428.88" arrivalPosLat="-0.00" arrivalSpeed="27.73" duration="133.10" routeLength="1523.59" waitingTime="2.70" waitingCount="1" stopTime="0.00" timeLoss="48.78" rerouteNo="1" devices="tripinfo_BalibagotoCalamba_1.2 routing_BalibagotoCalamba_1.2" vType="jeep" speedFactor="1.00" vaporized=""/>
    <tripinfo id="StaRosatoCalamba_1.1" depart="93.90" departLane="92878383#0_1" departPos="7.20" departPosLat="0.00" departSpeed="8.60" departDelay="0.00" arrival="411.10" arrivalLane="-185930141#0_2" arrivalPos="428.88" arrivalPosLat="0.00" arrivalSpeed="28.68" duration="317.20" routeLength="1853.36" waitingTime="134.90" waitingCount="1" stopTime="0.00" timeLoss="172.52" rerouteNo="1" devices="tripinfo_StaRosatoCalamba_1.1 routing_StaRosatoCalamba_1.1" vType="truck" speedFactor="1.03" vaporized=""/>
    <tripinfo id="StaRosatoCalamba_1.2" depart="95.10" departLane="92878383#0_1" departPos="7.20" departPosLat="0.00" departSpeed="5.66" departDelay="0.40" arrival="411.80" arrivalLane="-185930141#0_1" arrivalPos="428.88" arrivalPosLat="-0.00" arrivalSpeed="28.89" duration="316.70" routeLength="1853.36" waitingTime="133.30" waitingCount="1" stopTime="0.00" timeLoss="173.17" rerouteNo="1" devices="tripinfo_StaRosatoCalamba_1.2 routing_StaRosatoCalamba_1.2" vType="truck" speedFactor="1.04" vaporized=""/>
    <tripinfo id="BalibagotoNuvali_1.1" depart="337.00" departLane="777619905_1" departPos="5.10" departPosLat="0.00" departSpeed="0.00" departDelay="0.00" arrival="414.00" arrivalLane="145507700#3_1" arrivalPos="783.31" arrivalPosLat="-0.00" arrivalSpeed="27.73" duration="77.00" routeLength="1312.87" waitingTime="0.00" waitingCount="0" stopTime="0.00" timeLoss="23.89" rerouteNo="1" devices="tripinfo_BalibagotoNuvali_1.1 routing_BalibagotoNuvali_1.1" vType="jeep" speedFactor="1.00" vaporized=""/>
    <personinfo id="pf_PalengketoJollibee_1.4" depart="288.00" type="ped" speedFactor="1.06" duration="126.80" waitingTime="2.40" timeLoss="14.71" traveltime="126.80">
        <walk depart="288.00" departPos="25.00" arrival="414.80" arrivalPos="5.21" duration="126.80" routeLength="164.52" timeLoss="14.71" maxSpeed="1.47" waitingTime="2.40"/>
    </personinfo>
    <tripinfo id="BiñantoStaRosa_1.1" depart="250.00" departLane="553887793#0_2" departPos="8.10" departPosLat="0.00" departSpeed="27.78" departDelay="0.00" arrival="415.00" arrivalLane="-92878383#0_1" arrivalPos="603.68" arrivalPosLat="-0.00" arrivalSpeed="8.33" duration="165.00" routeLength="1782.95" waitingTime="2.60" waitingCount="1" stopTime="0.00" timeLoss="10.90" rerouteNo="1" devices="tripinfo_BiñantoStaRosa_1.1 routing_BiñantoStaRosa_1.1" vType="jeep" speedFactor="1.00" vaporized=""/>
    <tripinfo id="StaRosatoNuvali_1.0" depart="193.30" departLane="92878383#0_1" departPos="2.30" departPosLat="0.00" departSpeed="7.78" departDelay="0.00" arrival="421.00" arrivalLane="145507700#3_1" arrivalPos="783.31" arrivalPosLat="0.00" arrivalSpeed="25.86" duration="227.70" routeLength="2448.66" waitingTime="25.50" waitingCount="1" stopTime="0.00" timeLoss="45.07" rerouteNo="1" devices="tripinfo_StaRosatoNuvali_1.0 routing_StaRosatoNuvali_1.0" vType="tricycle" speedFactor="0.93" vaporized=""/>
    <tripinfo id="StaRosatoNuvali_1.1" depart="235.40" departLane="92878383#0_1" departPos="5.10" departPosLat="0.00" departSpeed="8.78" departDelay="0.00" arrival="421.70" arrivalLane="145507700#3_2" arrivalPos="783.31" arrivalPosLat="0.00" arrivalSpeed="29.21" duration="186.30" routeLength="2445.86" waitingTime="3.70" waitingCount="1" stopTime="0.00" timeLoss="24.96" rerouteNo="1" devices="tripinfo_StaRosatoNuvali_1.1 routing_StaRosatoNuvali_1.1" vType="car" speedFactor="1.05" vaporized=""/>
    <personinfo id="pf_TargettoSakayan_1.0" depart="0.00" type="ped" speedFactor="1.12" duration="426.50" waitingTime="0.30" timeLoss="43.13" traveltime="426.50">
        <walk depart="0.00" departPos="25.00" arrival="426.50" arrivalPos="27.04" duration="426.50" routeLength="596.09" timeLoss="43.13" maxSpeed="1.55" waitingTime="0.30"/>
    </personinfo>
    <personinfo id="pf_JollibeetoSTI_1.2" depart="160.00" type="ped" speedFactor="1.01" duration="266.70" waitingTime="0.00" timeLoss="26.74" traveltime="266.70">
        <walk depart="160.00" departPos="10.42" arrival="426.70" arrivalPos="19.02" duration="266.70" routeLength="335.01" timeLoss="26.74" maxSpeed="1.40" waitingTime="0.00"/>
    </personinfo>
    <tripinfo id="NuvalitoBiñan_1.1" depart="271.60" departLane="-145507700#3_1" departPos="5.10" departPosLat="0.00" departSpeed="24.93" departDelay="0.00" arrival="427.20" arrivalLane="-553887793#0_2" arrivalPos="201.31" arrivalPosLat="0.00" arrivalSpeed="24.88" duration="155.60" routeLength="2093.39" waitingTime="52.40" waitingCount="2" stopTime="0.00" timeLoss="70.21" rerouteNo="1" devices="tripinfo_NuvalitoBiñan_1.1 routing_NuvalitoBiñan_1.1" vType="car" speedFactor="0.90" vaporized=""/>
    <tripinfo id="NuvalitoBiñan_1.2" depart="341.80" departLane="-145507700#3_1" departPos="2.30" departPosLat="0.00" departSpeed="33.13" departDelay="0.00" arrival="428.50" arrivalLane="-553887793#0_2" arrivalPos="201.31" arrivalPosLat="0.00" arrivalSpeed="26.79" duration="86.70" routeLength="2096.19" waitingTime="0.00" waitingCount="0" stopTime="0.00" timeLoss="22.33" rerouteNo="1" devices="tripinfo_NuvalitoBiñan_1.2 routing_NuvalitoBiñan_1.2" vType="tricycle" speedFactor="1.19" vaporized=""/>
    <tripinfo id="BalibagotoStaRosa_1.1" depart="214.70" departLane="145507698_1" departPos="7.55" departPosLat="0.00" departSpeed="0.00" departDelay="0.00" arrival="436.80" arrivalLane="-92878383#0_1" arrivalPos="603.68" arrivalPosLat="-0.00" arrivalSpeed="8.31" duration="222.10" routeLength="1983.33" waitingTime="0.00" waitingCount="0" stopTime="0.00" timeLoss="33.38" rerouteNo="1" devices="tripinfo_BalibagotoStaRosa_1.1 routing_BalibagotoStaRosa_1.1" vType="jeep" speedFactor="1.00" vaporized=""/>
    <personinfo id="pf_JollibeetoPalengke_1.5" depart="300.00" type="ped" speedFactor="0.83" duration="151.50" waitingTime="0.00" timeLoss="15.23" traveltime="151.50">