<?xml version="1.0" encoding="UTF-8"?>

<!-- generated on 2026-02-20 21:39:51 by Eclipse SUMO sumo Version 1.24.0
<sumoConfiguration xmlns:xsi="http://www.w3.org/2001/XMLSchema-instance" xsi:noNamespaceSchemaLocation="http://sumo.dlr.de/xsd/sumoConfiguration.xsd">

    <input>
        <net-file value="Balibago_traci/network/balibago_signalized.net.xml"/>
        <route-files value="Balibago_traci/demand/flows_slow_traffic.rou.xml"/>
        <additional-files value="Balibago_traci/additionals/balibago.poly.xml,Balibago_traci/ additionals/balibago.add.xml"/>
    </input>

    <output>
        <tripinfo-output value="Balibago_traci/output_DDPG/slow_trips.xml"/>
        <statistic-output value="Balibago_traci/output_DDPG/slow_stats.xml"/>
    </output>

    <time>
        <begin value="0"/>
        <end value="10800"/>
        <step-length value="0.1"/>
    </time>

    <processing>
        <lateral-resolution value="0.1"/>
        <collision.action value="none"/>
        <collision.check-junctions value="false"/>
        <collision.mingap-factor value="0"/>
    </processing>

    <report>
        <no-warnings value="true"/>
    </report>

    <traci_server>
        <remote-port value="8814"/>
    </traci_server>

    <gui_only>
        <delay value="0"/>
    </gui_only>

</sumoConfiguration>
-->

<tripinfos xmlns:xsi="http://www.w3.org/2001/XMLSchema-instance" xsi:noNamespaceSchemaLocation="http://sumo.dlr.de/xsd/tripinfo_file.xsd">
    <tripinfo id="BalibagotoNuvali.0" depart="9.20" departLane="777619905_1" departPos="2.30" departPosLat="0.00" departSpeed="5.50" departDelay="0.00" arrival="70.40" arrivalLane="145507700#3_2" arrivalPos="783.31" arrivalPosLat="0.00" arrivalSpeed="29.87" duration="61.20" routeLength="1315.67" waitingTime="0.00" waitingCount="0" stopTime="0.00" timeLoss="11.74" rerouteNo="1" devices="tripinfo_BalibagotoNuvali.0 routing_BalibagotoNuvali.0" vType="tricycle" speedFactor="1.08" vaporized=""/>
    <tripinfo id="NuvalitoBiñan.0" depart="0.70" departLane="-145507700#3_1" departPos="5.10" departPosLat="0.00" departSpeed="25.17" departDelay="0.00" arrival="94.40" arrivalLane="-553887793#0_2" arrivalPos="201.31" arrivalPosLat="0.00" arrivalSpeed="25.09" duration="93.70" routeLength="2093.39" waitingTime="0.00" waitingCount="0" stopTime="0.00" timeLoss="9.11" rerouteNo="1" devices="tripinfo_NuvalitoBiñan.0 routing_NuvalitoBiñan.0" vType="car" speedFactor="0.91" vaporized=""/>
    <tripinfo id="BiñantoBalibago.0" depart="5.20" departLane="553887793#0_1" departPos="12.10" departPosLat="0.00" departSpeed="27.78" departDelay="0.00" arrival="105.70" arrivalLane="-32083237#0_1" arrivalPos="36.46" arrivalPosLat="0.00" arrivalSpeed="11.27" duration="100.50" routeLength="992.33" waitingTime="27.40" waitingCount="2" stopTime="0.00" timeLoss="61.12" rerouteNo="1" devices="tripinfo_BiñantoBalibago.0 routing_BiñantoBalibago.0" vType="bus" speedFactor="1.00" vaporized=""/>
    <personinfo id="JollibeetoPalengke.0" depart="0.00" type="ped" speedFactor="1.06" duration="118.30" waitingTime="0.00" timeLoss="11.47" traveltime="118.30">
        <walk depart="0.00" departPos="10.42" arrival="118.30" arrivalPos="27.04" duration="118.30" routeLength="157.27" timeLoss="11.47" maxSpeed="1.47" waitingTime="0.00"/>
    </personinfo>
    <tripinfo id="NuvalitoBiñan.1" depart="32.40" departLane="-145507700#3_2" departPos="8.10" departPosLat="0.00" departSpeed="27.78" departDelay="0.00" arrival="126.80" arrivalLane="-553887793#0_2" arrivalPos="201.31" arrivalPosLat="0.00" arrivalSpeed="27.74" duration="94.40" routeLength="2090.39" waitingTime="0.00" waitingCount="0" stopTime="0.00" timeLoss="17.79" rerouteNo="1" devices="tripinfo_NuvalitoBiñan.1 routing_NuvalitoBiñan.1" vType="jeep" speedFactor="1.00" vaporized=""/>
    <personinfo id="PalengketoJollibee.1" depart="22.50" type="ped" speedFactor="1.06" duration="125.70" waitingTime="0.10" timeLoss="13.59" traveltime="125.70">
        <walk depart="22.50" departPos="25.00" arrival="148.20" arrivalPos="5.21" duration="125.70" routeLength="164.52" timeLoss="13.59" maxSpeed="1.47" waitingTime="0.10"/>
    </personinfo>
    <tripinfo id="NuvalitoBalibago.0" depart="8.30" departLane="-145507700#3_1" departPos="8.10" departPosLat="0.00" departSpeed="27.78" departDelay="0.00" arrival="148.60" arrivalLane="32083201#1_1" arrivalPos="58.53" arrivalPosLat="0.00" arrivalSpeed="13.84" duration="140.30" routeLength="2055.09" waitingTime="0.00" waitingCount="0" stopTime="0.00" timeLoss="34.54" rerouteNo="1" devices="tripinfo_NuvalitoBalibago.0 routing_NuvalitoBalibago.0" vType="jeep" speedFactor="1.00" vaporized=""/>
    <personinfo id="PalengketoJollibee.0" depart="0.00" type="ped" speedFactor="0.93" duration="149.50" waitingTime="7.60" timeLoss="22.03" traveltime="149.50">
        <walk depart="0.00" departPos="25.00" arrival="149.50" arrivalPos="5.21" duration="149.50" routeLength="164.52" timeLoss="22.03" maxSpeed="1.29" waitingTime="7.60"/>
    </personinfo>
    <tripinfo id="BalibagotoNuvali.1" depart="30.10" departLane="777619905_1" departPos="5.10" departPosLat="0.00" departSpeed="0.00" departDelay="0.00" arrival="156.00" arrivalLane="145507700#3_1" arrivalPos="783.31" arrivalPosLat="-0.00" arrivalSpeed="27.75" duration="125.90" routeLength="1312.87" waitingTime="25.10" waitingCount="3" stopTime="0.00" timeLoss="72.86" rerouteNo="1" devices="tripinfo_BalibagotoNuvali.1 routing_BalibagotoNuvali.1" vType="jeep" speedFactor="1.00" vaporized=""/>
    <personinfo id="JollibeetoPalengke.1" depart="22.50" type="ped" speedFactor="0.94" duration="133.60" waitingTime="0.00" timeLoss="12.92" traveltime="133.60">
        <walk depart="22.50" departPos="10.42" arrival="156.10" arrivalPos="27.04" duration="133.60" routeLength="157.27" timeLoss="12.92" maxSpeed="1.30" waitingTime="0.00"/>
    </personinfo>
    <tripinfo id="NuvalitoBiñan.2" depart="67.30" departLane="-145507700#3_1" departPos="12.10" departPosLat="0.00" departSpeed="27.78" departDelay="0.00" arrival="161.20" arrivalLane="-553887793#0_2" arrivalPos="201.31" arrivalPosLat="0.00" arrivalSpeed="27.77" duration="93.90" routeLength="2086.39" waitingTime="0.00" waitingCount="0" stopTime="0.00" timeLoss="17.46" rerouteNo="1" devices="tripinfo_NuvalitoBiñan.2 routing_NuvalitoBiñan.2" vType="bus" speedFactor="1.00" vaporized=""/>
    <personinfo id="PalengketoJollibee.2" depart="45.00" type="ped" speedFactor="1.10" duration="120.80" waitingTime="0.70" timeLoss="12.78" traveltime="120.80">
        <walk depart="45.00" departPos="25.00" arrival="165.80" arrivalPos="5.21" duration="120.80" routeLength="164.52" timeLoss="12.78" maxSpeed="1.52" waitingTime="0.70"/>
    </personinfo>
    <tripinfo id="BalibagotoNuvali.2" depart="81.90" departLane="777619905_1" departPos="5.10" departPosLat="0.00" departSpeed="0.00" departDelay="0.00" arrival="167.90" arrivalLane="145507700#3_1" arrivalPos="783.31" arrivalPosLat="-0.00" arrivalSpeed="27.73" duration="86.00" routeLength="1312.87" waitingTime="1.60" waitingCount="1" stopTime="0.00" timeLoss="32.95" rerouteNo="1" devices="tripinfo_BalibagotoNuvali.2 routing_BalibagotoNuvali.2" vType="jeep" speedFactor="1.00" vaporized=""/>
    <tripinfo id="NuvalitoBalibago.1" depart="28.30" departLane="-145507700#3_1" departPos="8.10" departPosLat="0.00" departSpeed="27.78" departDelay="0.00" arrival="169.20" arrivalLane="32083201#1_1" arrivalPos="58.53" arrivalPosLat="0.00" arrivalSpeed="13.85" duration="140.90" routeLength="2055.09" waitingTime="0.00" waitingCount="0" stopTime="0.00" timeLoss="34.98" rerouteNo="1" devices="tripinfo_NuvalitoBalibago.1 routing_NuvalitoBalibago.1" vType="jeep" speedFactor="1.00" vaporized=""/>
    <personinfo id="JollibeetoPalengke.2" depart="45.00" type="ped" speedFactor="1.01" duration="125.10" waitingTime="0.60" timeLoss="13.03" traveltime="125.10">
        <walk depart="45.00" departPos="10.42" arrival="170.10" arrivalPos="27.04" duration="125.10" routeLength="157.27" timeLoss="13.03" maxSpeed="1.40" waitingTime="0.60"/>
    </personinfo>
    <personinfo id="JollibeetoPalengke.3" depart="67.50" type="ped" speedFactor="1.08" duration="115.90" waitingTime="0.00" timeLoss="11.31" traveltime="115.90">
        <walk depart="67.50" departPos="10.42" arrival="183.40" arrivalPos="27.04" duration="115.90" routeLength="157.27" timeLoss="11.31" maxSpeed="1.50" waitingTime="0.00"/>
    </personinfo>
    <tripinfo id="CalambatoStaRosa.0" depart="28.70" departLane="185930141#0_1" departPos="5.10" departPosLat="0.00" departSpeed="26.85" departDelay="0.00" arrival="191.60" arrivalLane="-92878383#0_1" arrivalPos="603.68" arrivalPosLat="0.00" arrivalSpeed="8.04" duration="162.90" routeLength="1808.59" waitingTime="0.00" waitingCount="0" stopTime="0.00" timeLoss="4.77" rerouteNo="1" devices="tripinfo_CalambatoStaRosa.0 routing_CalambatoStaRosa.0" vType="car" speedFactor="0.97" vaporized=""/>
    <tripinfo id="CalambatoBiñan.0" depart="32.70" departLane="185930141#0_2" departPos="5.10" departPosLat="0.00" departSpeed="26.71" departDelay="0.00" arrival="194.80" arrivalLane="-553887793#0_1" arrivalPos="201.31" arrivalPosLat="-0.00" arrivalSpeed="26.62" duration="162.10" routeLength="1507.67" waitingTime="90.80" waitingCount="1" stopTime="0.00" timeLoss="105.60" rerouteNo="1" devices="tripinfo_CalambatoBiñan.0 routing_CalambatoBiñan.0" vType="car" speedFactor="0.96" vaporized=""/>
    <tripinfo id="BalibagotoBiñan.1" depart="37.20" departLane="145507698_1" departPos="7.55" departPosLat="0.00" departSpeed="0.00" departDelay="0.00" arrival="201.20" arrivalLane="-553887793#0_1" arrivalPos="201.31" arrivalPosLat="0.00" arrivalSpeed="27.76" duration="164.00" routeLength="1685.56" waitingTime="19.00" waitingCount="1" stopTime="0.00" timeLoss="73.48" rerouteNo="1" devices="tripinfo_BalibagotoBiñan.1 routing_BalibagotoBiñan.1" vType="bus" speedFactor="1.00" vaporized=""/>
    <tripinfo id="BalibagotoBiñan.0" depart="13.70" departLane="145507698_1" departPos="7.55" departPosLat="0.00" departSpeed="0.00" departDelay="0.00" arrival="204.00" arrivalLane="-553887793#0_2" arrivalPos="201.31" arrivalPosLat="0.00" arrivalSpeed="27.77" duration="190.30" routeLength="1682.41" waitingTime="44.80" waitingCount="1" stopTime="0.00" timeLoss="100.18" rerouteNo="1" devices="tripinfo_BalibagotoBiñan.0 routing_BalibagotoBiñan.0" vType="jeep" speedFactor="1.00" vaporized=""/>
    <tripinfo id="BalibagotoBiñan.3" depart="90.00" departLane="145507698_1" departPos="2.30" departPosLat="0.00" departSpeed="0.57" departDelay="23.30" arrival="205.30" arrivalLane="-553887793#0_2" arrivalPos="201.31" arrivalPosLat="0.00" arrivalSpeed="29.66" duration="115.30" routeLength="1690.81" waitingTime="0.00" waitingCount="0" stopTime="0.00" timeLoss="31.72" rerouteNo="1" devices="tripinfo_BalibagotoBiñan.3 routing_BalibagotoBiñan.3" vType="tricycle" speedFactor="1.08" vaporized=""/>
    <tripinfo id="NuvalitoBalibago.2" depart="68.00" departLane="-145507700#3_1" departPos="8.10" departPosLat="0.00" departSpeed="25.24" departDelay="0.00" arrival="209.50" arrivalLane="32083201#1_1" arrivalPos="58.53" arrivalPosLat="0.00" arrivalSpeed="13.88" duration="141.50" routeLength="2055.09" waitingTime="0.00" waitingCount="0" stopTime="0.00" timeLoss="35.72" rerouteNo="1" devices="tripinfo_NuvalitoBalibago.2 routing_NuvalitoBalibago.2" vType="jeep" speedFactor="1.00" vaporized=""/>
    <personinfo id="JollibeetoPalengke.4" depart="90.00" type="ped" speedFactor="1.03" duration="122.20" waitingTime="0.00" timeLoss="12.29" traveltime="122.20">
        <walk depart="90.00" departPos="10.42" arrival="212.20" arrivalPos="27.04" duration="122.20" routeLength="157.27" timeLoss="12.29" maxSpeed="1.43" waitingTime="0.00"/>
    </personinfo>
    <tripinfo id="NuvalitoBalibago.3" depart="71.30" departLane="-145507700#3_1" departPos="8.10" departPosLat="0.00" departSpeed="27.78" departDelay="0.00" arrival="214.00" arrivalLane="32083201#1_1" arrivalPos="58.53" arrivalPosLat="0.00" arrivalSpeed="13.85" duration="142.70" routeLength="2055.09" waitingTime="0.00" waitingCount="0" stopTime="0.00" timeLoss="36.80" rerouteNo="1" devices="tripinfo_NuvalitoBalibago.3 routing_NuvalitoBalibago.3" vType="jeep" speedFactor="1.00" vaporized=""/>
    <tripinfo id="BalibagotoBiñan.2" depart="86.30" departLane="145507698_1" departPos="7.55" departPosLat="0.00" departSpeed="0.00" departDelay="20.70" arrival="214.40" arrivalLane="-553887793#0_1" arrivalPos="201.31" arrivalPosLat="-0.00" arrivalSpeed="27.73" duration="128.10" routeLength="1682.41" waitingTime="0.40" waitingCount="1" stopTime="0.00" timeLoss="37.98" rerouteNo="1" devices="tripinfo_BalibagotoBiñan.2 routing_BalibagotoBiñan.2" vType="jeep" speedFactor="1.00" vaporized=""/>
    <personinfo id="PalengketoJollibee.3" depart="67.50" type="ped" speedFactor="0.95" duration="151.80" waitingTime="13.60" timeLoss="27.66" traveltime="151.80">
        <walk depart="67.50" departPos="25.00" arrival="219.30" arrivalPos="5.21" duration="151.80" routeLength="164.52" timeLoss="27.66" maxSpeed="1.33" waitingTime="13.60"/>
    </personinfo>
    <tripinfo id="NuvalitoCalamba.0" depart="45.30" departLane="-145507700#3_1" departPos="2.30" departPosLat="0.00" departSpeed="25.08" departDelay="0.00" arrival="219.90" arrivalLane="-185930141#0_1" arrivalPos="428.88" arrivalPosLat="-0.00" arrivalSpeed="25.01" duration="174.60" routeLength="2324.56" waitingTime="70.70" waitingCount="1" stopTime="0.00" timeLoss="80.56" rerouteNo="1" devices="tripinfo_NuvalitoCalamba.0 routing_NuvalitoCalamba.0" vType="motorcycle" speedFactor="0.90" vaporized=""/>
    <tripinfo id="CalambatoNuvali.0" depart="34.20" departLane="185930141#0_2" departPos="2.30" departPosLat="0.00" departSpeed="29.43" departDelay="0.00" arrival="226.40" arrivalLane="145507700#3_1" arrivalPos="783.31" arrivalPosLat="-0.00" arrivalSpeed="29.50" duration="192.20" routeLength="2335.67" waitingTime="89.00" waitingCount="1" stopTime="0.00" timeLoss="111.60" rerouteNo="1" devices="tripinfo_CalambatoNuvali.0 routing_CalambatoNuvali.0" vType="motorcycle" speedFactor="1.06" vaporized=""/>
    <tripinfo id="BalibagotoNuvali.3" depart="124.10" departLane="777619905_1" departPos="5.10" departPosLat="0.00" departSpeed="0.00" departDelay="0.00" arrival="228.20" arrivalLane="145507700#3_2" arrivalPos="783.31" arrivalPosLat="-1.35" arrivalSpeed="27.72" duration="104.10" routeLength="1312.87" waitingTime="13.00" waitingCount="2" stopTime="0.00" timeLoss="51.05" rerouteNo="1" devices="tripinfo_BalibagotoNuvali.3 routing_BalibagotoNuvali.3" vType="jeep" speedFactor="1.00" vaporized=""/>
    <tripinfo id="BalibagotoCalamba.0" depart="42.20" departLane="145507698_1" departPos="7.55" departPosLat="0.00" departSpeed="0.00" departDelay="1.80" arrival="230.10" arrivalLane="-185930141#0_1" arrivalPos="428.88" arrivalPosLat="0.00" arrivalSpeed="27.74" duration="187.90" routeLength="1526.74" waitingTime="56.60" waitingCount="2" stopTime="0.00" timeLoss="103.28" rerouteNo="1" devices="tripinfo_BalibagotoCalamba.0 routing_BalibagotoCalamba.0" vType="bus" speedFactor="1.00" vaporized=""/>
    <tripinfo id="BalibagotoCalamba.1" depart="92.70" departLane="145507698_1" departPos="7.55" departPosLat="0.00" departSpeed="0.00" departDelay="11.80" arrival="230.50" arrivalLane="-185930141#0_2" arrivalPos="428.88" arrivalPosLat="0.00" arrivalSpeed="27.74" duration="137.80" routeLength="1523.59" waitingTime="4.40" waitingCount="2" stopTime="0.00" timeLoss="53.61" rerouteNo="1" devices="tripinfo_BalibagotoCalamba.1 routing_BalibagotoCalamba.1" vType="jeep" speedFactor="1.00" vaporized=""/>
    <tripinfo id="CalambatoBiñan.1" depart="169.10" departLane="185930141#0_1" departPos="2.30" departPosLat="0.00" departSpeed="25.52" departDelay="0.00" arrival="230.90" arrivalLane="-553887793#0_1" arrivalPos="201.31" arrivalPosLat="0.00" arrivalSpeed="25.40" duration="61.80" routeLength="1510.47" waitingTime="0.00" waitingCount="0" stopTime="0.00" timeLoss="2.61" rerouteNo="1" devices="tripinfo_CalambatoBiñan.1 routing_CalambatoBiñan.1" vType="motorcycle" speedFactor="0.92" vaporized=""/>
    <tripinfo id="BalibagotoNuvali.6" depart="157.80" departLane="777619905_1" departPos="2.30" departPosLat="0.00" departSpeed="5.50" departDelay="0.00" arrival="233.90" arrivalLane="145507700#3_2" arrivalPos="783.31" arrivalPosLat="0.00" arrivalSpeed="29.19" duration="76.10" routeLength="1315.67" waitingTime="0.00" waitingCount="0" stopTime="0.00" timeLoss="25.36" rerouteNo="1" devices="tripinfo_BalibagotoNuvali.6 routing_BalibagotoNuvali.6" vType="tricycle" speedFactor="1.05" vaporized=""/>
    <tripinfo id="BalibagotoNuvali.4" depart="138.80" departLane="777619905_1" departPos="2.30" departPosLat="0.00" departSpeed="5.50" departDelay="0.00" arrival="235.70" arrivalLane="145507700#3_1" arrivalPos="783.31" arrivalPosLat="-0.00" arrivalSpeed="24.45" duration="96.90" routeLength="1315.67" waitingTime="8.70" waitingCount="2" stopTime="0.00" timeLoss="36.51" rerouteNo="1" devices="tripinfo_BalibagotoNuvali.4 routing_BalibagotoNuvali.4" vType="tricycle" speedFactor="0.88" vaporized=""/>
    <tripinfo id="BalibagotoNuvali.5" depart="139.70" departLane="777619905_1" departPos="2.30" departPosLat="0.00" departSpeed="5.50" departDelay="0.40" arrival="238.00" arrivalLane="145507700#3_1" arrivalPos="783.31" arrivalPosLat="-0.00" arrivalSpeed="23.68" duration="98.30" routeLength="1315.67" waitingTime="4.10" waitingCount="2" stopTime="0.00" timeLoss="35.78" rerouteNo="1" devices="tripinfo_BalibagotoNuvali.5 routing_BalibagotoNuvali.5" vType="tricycle" speedFactor="0.85" vaporized=""/>
    <tripinfo id="BalibagotoCalamba.2" depart="100.80" departLane="145507698_1" departPos="7.55" departPosLat="0.00" departSpeed="0.00" departDelay="18.40" arrival="240.10" arrivalLane="-185930141#0_2" arrivalPos="428.88" arrivalPosLat="0.00" arrivalSpeed="27.73" duration="139.30" routeLength="1523.59" waitingTime="22.00" waitingCount="1" stopTime="0.00" timeLoss="55.05" rerouteNo="1" devices="tripinfo_BalibagotoCalamba.2 routing_BalibagotoCalamba.2" vType="jeep" speedFactor="1.00" vaporized=""/>
    <tripinfo id="BiñantoCalamba.1" depart="18.60" departLane="553887793#0_2" departPos="5.10" departPosLat="0.00" departSpeed="31.93" departDelay="0.00" arrival="241.90" arrivalLane="-185930141#0_2" arrivalPos="428.88" arrivalPosLat="0.00" arrivalSpeed="31.84" duration="223.30" routeLength="1507.67" waitingTime="159.70" waitingCount="1" stopTime="0.00" timeLoss="176.00" rerouteNo="1" devices="tripinfo_BiñantoCalamba.1 routing_BiñantoCalamba.1" vType="car" speedFactor="1.15" vaporized=""/>
    <personinfo id="PalengketoJollibee.4" depart="90.00" type="ped" speedFactor="0.91" duration="153.10" waitingTime="7.60" timeLoss="22.47" traveltime="153.10">
        <walk depart="90.00" departPos="25.00" arrival="243.10" arrivalPos="5.21" duration="153.10" routeLength="164.52" timeLoss="22.47" maxSpeed="1.26" waitingTime="7.60"/>
    </personinfo>
    <tripinfo id="BalibagotoCalamba.3" depart="127.00" departLane="145507698_1" departPos="7.55" departPosLat="0.00" departSpeed="0.00" departDelay="41.80" arrival="245.00" arrivalLane="-185930141#0_1" arrivalPos="428.88" arrivalPosLat="-0.00" arrivalSpeed="27.73" duration="118.00" routeLength="1523.59" waitingTime="0.60" waitingCount="1" stopTime="0.00" timeLoss="33.77" rerouteNo="1" devices="tripinfo_BalibagotoCalamba.3 routing_BalibagotoCalamba.3" vType="jeep" speedFactor="1.00" vaporized=""/>
    <tripinfo id="BiñantoCalamba.0" depart="15.10" departLane="553887793#0_1" departPos="5.10" departPosLat="0.00" departSpeed="28.61" departDelay="0.00" arrival="246.40" arrivalLane="-185930141#0_1" arrivalPos="428.88" arrivalPosLat="0.00" arrivalSpeed="28.59" duration="231.30" routeLength="1507.67" waitingTime="159.10" waitingCount="1" stopTime="0.00" timeLoss="178.56" rerouteNo="1" devices="tripinfo_BiñantoCalamba.0 routing_BiñantoCalamba.0" vType="car" speedFactor="1.03" vaporized=""/>
    <tripinfo id="NuvalitoBalibago.4" depart="85.20" departLane="-145507700#3_1" departPos="2.30" departPosLat="0.00" departSpeed="21.98" departDelay="0.00" arrival="247.00" arrivalLane="32083201#1_1" arrivalPos="58.53" arrivalPosLat="0.00" arrivalSpeed="10.97" duration="161.80" routeLength="2064.04" waitingTime="9.20" waitingCount="1" stopTime="0.00" timeLoss="27.47" rerouteNo="1" devices="tripinfo_NuvalitoBalibago.4 routing_NuvalitoBalibago.4" vType="tricycle" speedFactor="0.79" vaporized=""/>
    <personinfo id="JollibeetoPalengke.6" depart="135.00" type="ped" speedFactor="1.05" duration="120.50" waitingTime="0.30" timeLoss="12.22" traveltime="120.50">
        <walk depart="135.00" departPos="10.42" arrival="255.50" arrivalPos="27.04" duration="120.50" routeLength="157.27" timeLoss="12.22" maxSpeed="1.45" waitingTime="0.30"/>
    </personinfo>
    <tripinfo id="NuvalitoStaRosa.0" depart="56.20" departLane="-145507700#3_2" departPos="5.10" departPosLat="0.00" departSpeed="30.14" departDelay="0.00" arrival="255.50" arrivalLane="-92878383#0_1" arrivalPos="603.68" arrivalPosLat="-0.00" arrivalSpeed="8.92" duration="199.30" routeLength="2600.04" waitingTime="6.80" waitingCount="2" stopTime="0.00" timeLoss="29.05" rerouteNo="1" devices="tripinfo_NuvalitoStaRosa.0 routing_NuvalitoStaRosa.0" vType="car" speedFactor="1.09" vaporized=""/>
    <tripinfo id="CalambatoNuvali.1" depart="49.20" departLane="185930141#0_2" departPos="8.10" departPosLat="0.00" departSpeed="27.78" departDelay="0.00" arrival="256.10" arrivalLane="145507700#3_1" arrivalPos="783.31" arrivalPosLat="-0.00" arrivalSpeed="27.73" duration="206.90" routeLength="2329.87" waitingTime="76.50" waitingCount="2" stopTime="0.00" timeLoss="121.42" rerouteNo="1" devices="tripinfo_CalambatoNuvali.1 routing_CalambatoNuvali.1" vType="jeep" speedFactor="1.00" vaporized=""/>
    <tripinfo id="CalambatoBalibago.0" depart="55.00" departLane="185930141#0_2" departPos="8.10" departPosLat="0.00" departSpeed="27.78" departDelay="0.00" arrival="256.70" arrivalLane="89908334_1" arrivalPos="36.84" arrivalPosLat="0.00" arrivalSpeed="8.69" duration="201.70" routeLength="908.17" waitingTime="128.60" waitingCount="3" stopTime="0.00" timeLoss="160.47" rerouteNo="1" devices="tripinfo_CalambatoBalibago.0 routing_CalambatoBalibago.0" vType="jeep" speedFactor="1.00" vaporized=""/>
    <tripinfo id="NuvalitoBalibago.5" depart="111.50" departLane="-145507700#3_1" departPos="8.10" departPosLat="0.00" departSpeed="22.87" departDelay="0.00" arrival="258.30" arrivalLane="32083201#1_1" arrivalPos="58.53" arrivalPosLat="0.00" arrivalSpeed="13.86" duration="146.80" routeLength="2055.09" waitingTime="0.00" waitingCount="0" stopTime="0.00" timeLoss="41.00" rerouteNo="1" devices="tripinfo_NuvalitoBalibago.5 routing_NuvalitoBalibago.5" vType="jeep" speedFactor="1.00" vaporized=""/>
    <tripinfo id="CalambatoBalibago.1" depart="65.80" departLane="185930141#0_2" departPos="2.30" departPosLat="0.00" departSpeed="29.28" departDelay="0.00" arrival="258.70" arrivalLane="89908334_1" arrivalPos="36.84" arrivalPosLat="0.00" arrivalSpeed="11.43" duration="192.90" routeLength="913.97" waitingTime="113.80" waitingCount="2" stopTime="0.00" timeLoss="153.48" rerouteNo="1" devices="tripinfo_CalambatoBalibago.1 routing_CalambatoBalibago.1" vType="tricycle" speedFactor="1.05" vaporized=""/>
    <tripinfo id="CalambatoBalibago.2" depart="79.70" departLane="185930141#0_2" departPos="8.10" departPosLat="0.00" departSpeed="27.78" departDelay="0.00" arrival="262.20" arrivalLane="89908334_1" arrivalPos="36.84" arrivalPosLat="0.00" arrivalSpeed="8.86" duration="182.50" routeLength="908.17" waitingTime="95.00" waitingCount="2" stopTime="0.00" timeLoss="141.19" rerouteNo="1" devices="tripinfo_CalambatoBalibago.2 routing_CalambatoBalibago.2" vType="jeep" speedFactor="1.00" vaporized=""/>
    <personinfo id="JollibeetoPalengke.5" depart="112.50" type="ped" speedFactor="0.83" duration="151.50" waitingTime="0.00" timeLoss="15.23" traveltime="151.50">
        <walk depart="112.50" departPos="10.42" arrival="264.00" arrivalPos="27.04" duration="151.50" routeLength="157.27" timeLoss="15.23" maxSpeed="1.15" waitingTime="0.00"/>
    </personinfo>
    <tripinfo id="CalambatoBalibago.3" depart="150.70" departLane="185930141#0_2" departPos="2.30" departPosLat="0.00" departSpeed="29.99" departDelay="0.00" arrival="264.70" arrivalLane="89908334_1" arrivalPos="36.84" arrivalPosLat="0.00" arrivalSpeed="11.22" duration="114.00" routeLength="913.97" waitingTime="32.20" waitingCount="1" stopTime="0.00" timeLoss="75.44" rerouteNo="1" devices="tripinfo_CalambatoBalibago.3 routing_CalambatoBalibago.3" vType="tricycle" speedFactor="1.08" vaporized=""/>
    <personinfo id="PalengketoJollibee.6" depart="135.00" type="ped" speedFactor="1.04" duration="132.30" waitingTime="0.40" timeLoss="18.80" traveltime="132.30">
        <walk depart="135.00" departPos="25.00" arrival="267.30" arrivalPos="5.21" duration="132.30" routeLength="164.52" timeLoss="18.80" maxSpeed="1.45" waitingTime="0.40"/>
    </personinfo>
    <tripinfo id="BalibagotoNuvali.7" depart="193.20" departLane="777619905_1" departPos="5.10" departPosLat="0.00" departSpeed="0.00" departDelay="0.00" arrival="269.70" arrivalLane="145507700#3_1" arrivalPos="783.31" arrivalPosLat="-0.00" arrivalSpeed="27.75" duration="76.50" routeLength="1312.87" waitingTime="0.00" waitingCount="0" stopTime="0.00" timeLoss="23.45" rerouteNo="1" devices="tripinfo_BalibagotoNuvali.7 routing_BalibagotoNuvali.7" vType="jeep" speedFactor="1.00" vaporized=""/>
    <personinfo id="PalengketoJollibee.5" depart="112.50" type="ped" speedFactor="0.84" duration="158.90" waitingTime="2.90" timeLoss="18.30" traveltime="158.90">
        <walk depart="112.50" departPos="25.00" arrival="271.40" arrivalPos="5.21" duration="158.90" routeLength="164.52" timeLoss="18.30" maxSpeed="1.17" waitingTime="2.90"/>
    </personinfo>
    <personinfo id="PalengketoSTI.0" depart="0.00" type="ped" speedFactor="0.97" duration="278.20" waitingTime="2.70" timeLoss="30.14" traveltime="278.20">
        <walk depart="0.00" departPos="10.42" arrival="278.20" arrivalPos="19.02" duration="278.20" routeLength="335.01" timeLoss="30.14" maxSpeed="1.35" waitingTime="2.70"/>
    </personinfo>
    <personinfo id="JollibeetoSTI.1" depart="22.50" type="ped" speedFactor="1.08" duration="256.00" waitingTime="1.60" timeLoss="32.18" traveltime="256.00">
        <walk depart="22.50" departPos="10.42" arrival="278.50" arrivalPos="19.02" duration="256.00" routeLength="335.01" timeLoss="32.18" maxSpeed="1.50" waitingTime="1.60"/>
    </personinfo>
    <tripinfo id="NuvalitoStaRosa.1" depart="76.20" departLane="-145507700#3_1" departPos="8.10" departPosLat="0.00" departSpeed="27.78" departDelay="0.00" arrival="283.50" arrivalLane="-92878383#0_1" arrivalPos="603.68" arrivalPosLat="-0.00" arrivalSpeed="8.28" duration="207.30" routeLength="2597.04" waitingTime="0.00" waitingCount="0" stopTime="0.00" timeLoss="22.63" rerouteNo="1" devices="tripinfo_NuvalitoStaRosa.1 routing_NuvalitoStaRosa.1" vType="jeep" speedFactor="1.00" vaporized=""/>
    <tripinfo id="NuvalitoStaRosa.2" depart="78.80" departLane="-145507700#3_2" departPos="5.10" departPosLat="0.00" departSpeed="28.02" departDelay="0.00" arrival="285.80" arrivalLane="-92878383#0_1" arrivalPos="603.68" arrivalPosLat="-0.00" arrivalSpeed="8.32" duration="207.00" routeLength="2600.04" waitingTime="0.00" waitingCount="0" stopTime="0.00" timeLoss="23.86" rerouteNo="1" devices="tripinfo_NuvalitoStaRosa.2 routing_NuvalitoStaRosa.2" vType="car" speedFactor="1.01" vaporized=""/>
    <tripinfo id="BalibagotoStaRosa.0" depart="63.60" departLane="145507698_1" departPos="7.55" departPosLat="0.00" departSpeed="0.00" departDelay="8.20" arrival="296.70" arrivalLane="-92878383#0_1" arrivalPos="603.68" arrivalPosLat="0.00" arrivalSpeed="8.32" duration="233.10" routeLength="1986.48" waitingTime="14.90" waitingCount="1" stopTime="0.00" timeLoss="43.88" rerouteNo="1" devices="tripinfo_BalibagotoStaRosa.0 routing_BalibagotoStaRosa.0" vType="bus" speedFactor="1.00" vaporized=""/>
    <personinfo id="PalengketoSTI.1" depart="22.50" type="ped" speedFactor="1.04" duration="276.30" waitingTime="3.90" timeLoss="44.90" traveltime="276.30">
        <walk depart="22.50" departPos="10.42" arrival="298.80" arrivalPos="19.02" duration="276.30" routeLength="335.01" timeLoss="44.90" maxSpeed="1.45" waitingTime="3.90"/>
    </personinfo>
    <personinfo id="PalengketoJollibee.7" depart="157.50" type="ped" speedFactor="0.97" duration="142.50" waitingTime="6.70" timeLoss="20.37" traveltime="142.50">
        <walk depart="157.50" departPos="25.00" arrival="300.00" arrivalPos="5.21" duration="142.50" routeLength="164.52" timeLoss="20.37" maxSpeed="1.35" waitingTime="6.70"/>
    </personinfo>
    <personinfo id="JollibeetoPalengke.7" depart="157.50" type="ped" speedFactor="0.89" duration="143.10" waitingTime="1.00" timeLoss="15.29" traveltime="143.10">
        <walk depart="157.50" departPos="10.42" arrival="300.60" arrivalPos="27.04" duration="143.10" routeLength="157.27" timeLoss="15.29" maxSpeed="1.23" waitingTime="1.00"/>
    </personinfo>
    <tripinfo id="BalibagotoBiñan.4" depart="173.90" departLane="145507698_1" departPos="7.55" departPosLat="0.00" departSpeed="0.00" departDelay="0.00" arrival="302.00" arrivalLane="-553887793#0_1" arrivalPos="201.31" arrivalPosLat="-0.00" arrivalSpeed="27.74" duration="128.10" routeLength="1682.41" waitingTime="0.20" waitingCount="1" stopTime="0.00" timeLoss="37.95" rerouteNo="1" devices="tripinfo_BalibagotoBiñan.4 routing_BalibagotoBiñan.4" vType="jeep" speedFactor="1.00" vaporized=""/>