<?xml version="1.0" encoding="UTF-8"?>

<!-- generated on 2026-02-22 09:56:12 by Eclipse SUMO sumo Version 1.24.0
<sumoConfiguration xmlns:xsi="http://www.w3.org/2001/XMLSchema-instance" xsi:noNamespaceSchemaLocation="http://sumo.dlr.de/xsd/sumoConfiguration.xsd">

    <input>
        <net-file value="Balibago_traci/network/balibago_signalized.net.xml"/>
        <route-files value="Balibago_traci/demand/flows_training3.rou.xml"/>
        <additional-files value="Balibago_traci/additionals/balibago.poly.xml,Balibago_traci/ additionals/balibago.add.xml"/>
    </input>

    <output>
        <tripinfo-output value="Balibago_traci/output_DDPG/train1_trips.xml"/>
        <statistic-output value="Balibago_traci/output_DDPG/train1_stats.xml"/>
    </output>

    <time>
        <begin value="0"/>
        <end value="10800"/>
        <step-length value="0.1"/>
    </time>

    <processing>
        <lateral-resolution value="0.1"/>
        <collision.action value="none"/>
        <collision.check-junctions value="false"/>
        <collision.mingap-factor value="0"/>
    </processing>

    <report>
        <no-warnings value="true"/>
    </report>

    <traci_server>
        <remote-port value="8814"/>
    </traci_server>

    <gui_only>
        <delay value="0"/>
    </gui_only>

</sumoConfiguration>
-->

<tripinfos xmlns:xsi="http://www.w3.org/2001/XMLSchema-instance" xsi:noNamespaceSchemaLocation="http://sumo.dlr.de/xsd/tripinfo_file.xsd">
    <tripinfo id="NuvalitoBiñan_6.0" depart="0.70" departLane="-145507700#3_1" departPos="2.30" departPosLat="0.00" departSpeed="32.38" departDelay="0.00" arrival="83.80" arrivalLane="-553887793#0_2" arrivalPos="201.31" arrivalPosLat="0.00" arrivalSpeed="32.35" duration="83.10" routeLength="2096.19" waitingTime="0.10" waitingCount="1" stopTime="0.00" timeLoss="17.26" rerouteNo="1" devices="tripinfo_NuvalitoBiñan_6.0 routing_NuvalitoBiñan_6.0" vType="tricycle" speedFactor="1.17" vaporized=""/>
    <tripinfo id="BalibagotoNuvali_6.0" depart="9.20" departLane="777619905_1" departPos="5.10" departPosLat="0.00" departSpeed="0.00" departDelay="0.00" arrival="85.50" arrivalLane="145507700#3_1" arrivalPos="783.31" arrivalPosLat="-0.00" arrivalSpeed="27.76" duration="76.30" routeLength="1312.87" waitingTime="0.00" waitingCount="0" stopTime="0.00" timeLoss="23.19" rerouteNo="1" devices="tripinfo_BalibagotoNuvali_6.0 routing_BalibagotoNuvali_6.0" vType="bus" speedFactor="1.00" vaporized=""/>
    <tripinfo id="BalibagotoNuvali_6.1" depart="30.10" departLane="777619905_1" departPos="2.30" departPosLat="0.00" departSpeed="5.50" departDelay="0.00" arrival="93.70" arrivalLane="145507700#3_1" arrivalPos="783.31" arrivalPosLat="-0.00" arrivalSpeed="27.96" duration="63.60" routeLength="1315.67" waitingTime="0.00" waitingCount="0" stopTime="0.00" timeLoss="10.81" rerouteNo="1" devices="tripinfo_BalibagotoNuvali_6.1 routing_BalibagotoNuvali_6.1" vType="tricycle" speedFactor="1.01" vaporized=""/>
    <personinfo id="pf_JollibeetoPalengke_6.0" depart="0.00" type="ped" speedFactor="1.06" duration="118.40" waitingTime="0.00" timeLoss="11.57" traveltime="118.40">
        <walk depart="0.00" departPos="10.42" arrival="118.40" arrivalPos="27.04" duration="118.40" routeLength="157.27" timeLoss="11.57" maxSpeed="1.47" waitingTime="0.00"/>
    </personinfo>
    <tripinfo id="NuvalitoBiñan_6.1" depart="32.40" departLane="-145507700#3_2" departPos="12.10" departPosLat="0.00" departSpeed="27.78" departDelay="0.00" arrival="129.00" arrivalLane="-553887793#0_2" arrivalPos="201.31" arrivalPosLat="0.00" arrivalSpeed="27.74" duration="96.60" routeLength="2086.39" waitingTime="0.00" waitingCount="0" stopTime="0.00" timeLoss="20.22" rerouteNo="1" devices="tripinfo_NuvalitoBiñan_6.1 routing_NuvalitoBiñan_6.1" vType="bus" speedFactor="1.00" vaporized=""/>
    <personinfo id="pf_PalengketoJollibee_6.0" depart="0.00" type="ped" speedFactor="0.98" duration="134.70" waitingTime="0.40" timeLoss="13.43" traveltime="134.70">
        <walk depart="0.00" departPos="25.00" arrival="134.70" arrivalPos="5.21" duration="134.70" routeLength="164.52" timeLoss="13.43" maxSpeed="1.36" waitingTime="0.40"/>
    </personinfo>
    <personinfo id="pf_PalengketoJollibee_6.1" depart="17.60" type="ped" speedFactor="1.09" duration="123.50" waitingTime="2.50" timeLoss="15.08" traveltime="123.50">
        <walk depart="17.60" departPos="25.00" arrival="141.10" arrivalPos="5.21" duration="123.50" routeLength="164.52" timeLoss="15.08" maxSpeed="1.52" waitingTime="2.50"/>
    </personinfo>
    <tripinfo id="NuvalitoBalibago_6.0" depart="8.30" departLane="-145507700#3_1" departPos="8.10" departPosLat="0.00" departSpeed="27.78" departDelay="0.00" arrival="148.90" arrivalLane="32083201#1_1" arrivalPos="58.53" arrivalPosLat="0.00" arrivalSpeed="13.89" duration="140.60" routeLength="2055.09" waitingTime="0.00" waitingCount="0" stopTime="0.00" timeLoss="34.70" rerouteNo="1" devices="tripinfo_NuvalitoBalibago_6.0 routing_NuvalitoBalibago_6.0" vType="jeep" speedFactor="1.00" vaporized=""/>
    <personinfo id="pf_JollibeetoPalengke_6.1" depart="17.20" type="ped" speedFactor="0.94" duration="134.30" waitingTime="0.00" timeLoss="13.62" traveltime="134.30">
        <walk depart="17.20" departPos="10.42" arrival="151.50" arrivalPos="27.04" duration="134.30" routeLength="157.27" timeLoss="13.62" maxSpeed="1.30" waitingTime="0.00"/>
    </personinfo>
    <tripinfo id="NuvalitoCalamba_6.0" depart="45.30" departLane="-145507700#3_1" departPos="8.10" departPosLat="0.00" departSpeed="27.78" departDelay="0.00" arrival="156.30" arrivalLane="-185930141#0_2" arrivalPos="428.88" arrivalPosLat="-1.45" arrivalSpeed="27.73" duration="111.00" routeLength="2318.76" waitingTime="0.00" waitingCount="0" stopTime="0.00" timeLoss="26.36" rerouteNo="1" devices="tripinfo_NuvalitoCalamba_6.0 routing_NuvalitoCalamba_6.0" vType="jeep" speedFactor="1.00" vaporized=""/>
    <personinfo id="pf_JollibeetoPalengke_6.2" depart="34.30" type="ped" speedFactor="1.01" duration="128.60" waitingTime="4.20" timeLoss="16.53" traveltime="128.60">
        <walk depart="34.30" departPos="10.42" arrival="162.90" arrivalPos="27.04" duration="128.60" routeLength="157.27" timeLoss="16.53" maxSpeed="1.40" waitingTime="4.20"/>
    </personinfo>
    <tripinfo id="NuvalitoCalamba_6.1" depart="56.80" departLane="-145507700#3_2" departPos="5.10" departPosLat="0.00" departSpeed="29.07" departDelay="0.00" arrival="163.50" arrivalLane="-185930141#0_2" arrivalPos="428.88" arrivalPosLat="0.00" arrivalSpeed="29.04" duration="106.70" routeLength="2321.76" waitingTime="0.00" waitingCount="0" stopTime="0.00" timeLoss="25.69" rerouteNo="1" devices="tripinfo_NuvalitoCalamba_6.1 routing_NuvalitoCalamba_6.1" vType="car" speedFactor="1.05" vaporized=""/>
    <tripinfo id="NuvalitoBiñan_6.2" depart="67.30" departLane="-145507700#3_1" departPos="7.20" departPosLat="0.00" departSpeed="29.56" departDelay="0.00" arrival="167.30" arrivalLane="-553887793#0_2" arrivalPos="201.31" arrivalPosLat="0.00" arrivalSpeed="29.53" duration="100.00" routeLength="2091.29" waitingTime="2.00" waitingCount="1" stopTime="0.00" timeLoss="28.08" rerouteNo="1" devices="tripinfo_NuvalitoBiñan_6.2 routing_NuvalitoBiñan_6.2" vType="truck" speedFactor="1.06" vaporized=""/>
    <tripinfo id="BalibagotoNuvali_6.2" depart="81.90" departLane="777619905_1" departPos="5.10" departPosLat="0.00" departSpeed="0.00" departDelay="0.00" arrival="167.40" arrivalLane="145507700#3_1" arrivalPos="783.31" arrivalPosLat="-0.00" arrivalSpeed="27.75" duration="85.50" routeLength="1312.87" waitingTime="1.20" waitingCount="1" stopTime="0.00" timeLoss="32.35" rerouteNo="1" devices="tripinfo_BalibagotoNuvali_6.2 routing_BalibagotoNuvali_6.2" vType="jeep" speedFactor="1.00" vaporized=""/>
    <personinfo id="pf_JollibeetoPalengke_6.3" depart="51.50" type="ped" speedFactor="1.08" duration="116.80" waitingTime="0.60" timeLoss="12.21" traveltime="116.80">
        <walk depart="51.50" departPos="10.42" arrival="168.30" arrivalPos="27.04" duration="116.80" routeLength="157.27" timeLoss="12.21" maxSpeed="1.50" waitingTime="0.60"/>
    </personinfo>
    <tripinfo id="NuvalitoBalibago_6.1" depart="28.30" departLane="-145507700#3_1" departPos="8.10" departPosLat="0.00" departSpeed="27.78" departDelay="0.00" arrival="168.90" arrivalLane="32083201#1_1" arrivalPos="58.53" arrivalPosLat="0.00" arrivalSpeed="13.87" duration="140.60" routeLength="2055.09" waitingTime="0.00" waitingCount="0" stopTime="0.00" timeLoss="34.83" rerouteNo="1" devices="tripinfo_NuvalitoBalibago_6.1 routing_NuvalitoBalibago_6.1" vType="jeep" speedFactor="1.00" vaporized=""/>
    <personinfo id="pf_PalengketoJollibee_6.2" depart="35.20" type="ped" speedFactor="0.95" duration="138.10" waitingTime="0.00" timeLoss="13.71" traveltime="138.10">
        <walk depart="35.20" departPos="25.00" arrival="173.30" arrivalPos="5.21" duration="138.10" routeLength="164.52" timeLoss="13.71" maxSpeed="1.32" waitingTime="0.00"/>
    </personinfo>
    <tripinfo id="BalibagotoCalamba_6.0" depart="41.50" departLane="145507698_1" departPos="7.55" departPosLat="0.00" departSpeed="0.00" departDelay="1.10" arrival="177.30" arrivalLane="-185930141#0_2" arrivalPos="428.88" arrivalPosLat="0.00" arrivalSpeed="27.72" duration="135.80" routeLength="1526.74" waitingTime="16.90" waitingCount="1" stopTime="0.00" timeLoss="51.17" rerouteNo="1" devices="tripinfo_BalibagotoCalamba_6.0 routing_BalibagotoCalamba_6.0" vType="bus" speedFactor="1.00" vaporized=""/>
    <tripinfo id="CalambatoBiñan_6.0" depart="32.70" departLane="185930141#0_1" departPos="2.30" departPosLat="0.00" departSpeed="28.48" departDelay="0.00" arrival="178.20" arrivalLane="-553887793#0_1" arrivalPos="201.31" arrivalPosLat="0.00" arrivalSpeed="28.45" duration="145.50" routeLength="1510.47" waitingTime="77.20" waitingCount="1" stopTime="0.00" timeLoss="92.39" rerouteNo="1" devices="tripinfo_CalambatoBiñan_6.0 routing_CalambatoBiñan_6.0" vType="tricycle" speedFactor="1.03" vaporized=""/>
    <tripinfo id="BalibagotoBiñan_6.2" depart="37.20" departLane="145507698_1" departPos="2.30" departPosLat="0.00" departSpeed="9.75" departDelay="0.00" arrival="179.30" arrivalLane="-553887793#0_1" arrivalPos="201.31" arrivalPosLat="0.00" arrivalSpeed="30.05" duration="142.10" routeLength="1690.81" waitingTime="26.40" waitingCount="1" stopTime="0.00" timeLoss="71.08" rerouteNo="1" devices="tripinfo_BalibagotoBiñan_6.2 routing_BalibagotoBiñan_6.2" vType="tricycle" speedFactor="1.28" vaporized=""/>
    <tripinfo id="BalibagotoBiñan_6.0" depart="13.70" departLane="145507698_1" departPos="7.55" departPosLat="0.00" departSpeed="0.00" departDelay="0.00" arrival="184.90" arrivalLane="-553887793#0_2" arrivalPos="201.31" arrivalPosLat="0.00" arrivalSpeed="27.74" duration="171.20" routeLength="1682.41" waitingTime="25.60" waitingCount="1" stopTime="0.00" timeLoss="81.15" rerouteNo="1" devices="tripinfo_BalibagotoBiñan_6.0 routing_BalibagotoBiñan_6.0" vType="jeep" speedFactor="1.00" vaporized=""/>
    <tripinfo id="BalibagotoBiñan_6.1" depart="27.80" departLane="145507698_1" departPos="7.55" departPosLat="0.00" departSpeed="0.00" departDelay="2.20" arrival="186.30" arrivalLane="-553887793#0_2" arrivalPos="201.31" arrivalPosLat="0.00" arrivalSpeed="27.77" duration="158.50" routeLength="1682.41" waitingTime="12.30" waitingCount="2" stopTime="0.00" timeLoss="68.42" rerouteNo="1" devices="tripinfo_BalibagotoBiñan_6.1 routing_BalibagotoBiñan_6.1" vType="jeep" speedFactor="1.00" vaporized=""/>
    <personinfo id="pf_PalengketoJollibee_6.3" depart="52.70" type="ped" speedFactor="0.98" duration="134.40" waitingTime="0.00" timeLoss="13.17" traveltime="134.40">
        <walk depart="52.70" departPos="25.00" arrival="187.10" arrivalPos="5.21" duration="134.40" routeLength="164.52" timeLoss="13.17" maxSpeed="1.36" waitingTime="0.00"/>
    </personinfo>
    <tripinfo id="NuvalitoBalibago_6.2" depart="68.00" departLane="-145507700#3_1" departPos="2.30" departPosLat="0.00" departSpeed="25.91" departDelay="0.00" arrival="192.10" arrivalLane="32083201#1_1" arrivalPos="58.53" arrivalPosLat="0.00" arrivalSpeed="14.25" duration="124.10" routeLength="2060.89" waitingTime="0.00" waitingCount="0" stopTime="0.00" timeLoss="20.99" rerouteNo="1" devices="tripinfo_NuvalitoBalibago_6.2 routing_NuvalitoBalibago_6.2" vType="tricycle" speedFactor="1.03" vaporized=""/>
    <personinfo id="pf_JollibeetoPalengke_6.4" depart="68.60" type="ped" speedFactor="1.03" duration="124.70" waitingTime="2.50" timeLoss="14.79" traveltime="124.70">
        <walk depart="68.60" departPos="10.42" arrival="193.30" arrivalPos="27.04" duration="124.70" routeLength="157.27" timeLoss="14.79" maxSpeed="1.43" waitingTime="2.50"/>
    </personinfo>
    <tripinfo id="BalibagotoBiñan_6.4" depart="83.00" departLane="145507698_1" departPos="2.30" departPosLat="0.00" departSpeed="0.94" departDelay="16.30" arrival="202.60" arrivalLane="-553887793#0_1" arrivalPos="201.31" arrivalPosLat="0.00" arrivalSpeed="29.13" duration="119.60" routeLength="1687.66" waitingTime="0.00" waitingCount="0" stopTime="0.00" timeLoss="33.39" rerouteNo="1" devices="tripinfo_BalibagotoBiñan_6.4 routing_BalibagotoBiñan_6.4" vType="tricycle" speedFactor="1.05" vaporized=""/>
    <tripinfo id="BalibagotoNuvali_6.3" depart="124.10" departLane="777619905_1" departPos="5.10" departPosLat="0.00" departSpeed="0.00" departDelay="0.00" arrival="203.00" arrivalLane="145507700#3_1" arrivalPos="783.31" arrivalPosLat="-0.00" arrivalSpeed="27.73" duration="78.90" routeLength="1312.87" waitingTime="0.00" waitingCount="0" stopTime="0.00" timeLoss="25.85" rerouteNo="1" devices="tripinfo_BalibagotoNuvali_6.3 routing_BalibagotoNuvali_6.3" vType="jeep" speedFactor="1.00" vaporized=""/>
    <tripinfo id="CalambatoNuvali_6.0" depart="49.20" departLane="185930141#0_2" departPos="2.30" departPosLat="0.00" departSpeed="28.17" departDelay="0.00" arrival="204.40" arrivalLane="145507700#3_1" arrivalPos="783.31" arrivalPosLat="-0.00" arrivalSpeed="28.06" duration="155.20" routeLength="2335.67" waitingTime="62.30" waitingCount="1" stopTime="0.00" timeLoss="70.76" rerouteNo="1" devices="tripinfo_CalambatoNuvali_6.0 routing_CalambatoNuvali_6.0" vType="motorcycle" speedFactor="1.01" vaporized=""/>
    <tripinfo id="BalibagotoBiñan_6.3" depart="70.00" departLane="145507698_1" departPos="7.55" departPosLat="0.00" departSpeed="0.00" departDelay="4.40" arrival="205.10" arrivalLane="-553887793#0_2" arrivalPos="201.31" arrivalPosLat="0.00" arrivalSpeed="27.76" duration="135.10" routeLength="1685.56" waitingTime="8.50" waitingCount="1" stopTime="0.00" timeLoss="44.61" rerouteNo="1" devices="tripinfo_BalibagotoBiñan_6.3 routing_BalibagotoBiñan_6.3" vType="bus" speedFactor="1.00" vaporized=""/>
    <tripinfo id="BalibagotoNuvali_6.4" depart="138.80" departLane="777619905_1" departPos="2.30" departPosLat="0.00" departSpeed="5.50" departDelay="0.00" arrival="211.90" arrivalLane="145507700#3_2" arrivalPos="783.31" arrivalPosLat="0.00" arrivalSpeed="33.29" duration="73.10" routeLength="1315.67" waitingTime="9.20" waitingCount="1" stopTime="0.00" timeLoss="28.72" rerouteNo="1" devices="tripinfo_BalibagotoNuvali_6.4 routing_BalibagotoNuvali_6.4" vType="tricycle" speedFactor="1.20" vaporized=""/>
    <tripinfo id="NuvalitoBalibago_6.3" depart="71.30" departLane="-145507700#3_1" departPos="8.10" departPosLat="0.00" departSpeed="26.98" departDelay="0.00" arrival="212.40" arrivalLane="32083201#1_1" arrivalPos="58.53" arrivalPosLat="0.00" arrivalSpeed="13.85" duration="141.10" routeLength="2055.09" waitingTime="0.00" waitingCount="0" stopTime="0.00" timeLoss="35.31" rerouteNo="1" devices="tripinfo_NuvalitoBalibago_6.3 routing_NuvalitoBalibago_6.3" vType="jeep" speedFactor="1.00" vaporized=""/>
    <personinfo id="pf_PalengketoJollibee_6.4" depart="70.30" type="ped" speedFactor="0.96" duration="143.70" waitingTime="6.50" timeLoss="20.37" traveltime="143.70">
        <walk depart="70.30" departPos="25.00" arrival="214.00" arrivalPos="5.21" duration="143.70" routeLength="164.52" timeLoss="20.37" maxSpeed="1.33" waitingTime="6.50"/>
    </personinfo>
    <tripinfo id="NuvalitoBalibago_6.4" depart="85.20" departLane="-145507700#3_1" departPos="2.30" departPosLat="0.00" departSpeed="31.74" departDelay="0.00" arrival="214.00" arrivalLane="32083201#1_1" arrivalPos="58.53" arrivalPosLat="0.00" arrivalSpeed="15.70" duration="128.80" routeLength="2060.89" waitingTime="0.00" waitingCount="0" stopTime="0.00" timeLoss="35.89" rerouteNo="1" devices="tripinfo_NuvalitoBalibago_6.4 routing_NuvalitoBalibago_6.4" vType="tricycle" speedFactor="1.14" vaporized=""/>
    <tripinfo id="BalibagotoNuvali_6.5" depart="139.60" departLane="777619905_1" departPos="2.30" departPosLat="0.00" departSpeed="5.50" departDelay="0.30" arrival="222.40" arrivalLane="145507700#3_1" arrivalPos="783.31" arrivalPosLat="-0.00" arrivalSpeed="28.48" duration="82.80" routeLength="1315.67" waitingTime="7.10" waitingCount="2" stopTime="0.00" timeLoss="30.83" rerouteNo="1" devices="tripinfo_BalibagotoNuvali_6.5 routing_BalibagotoNuvali_6.5" vType="tricycle" speedFactor="1.03" vaporized=""/>
    <personinfo id="pf_JollibeetoPalengke_6.6" depart="102.90" type="ped" speedFactor="1.05" duration="120.80" waitingTime="0.00" timeLoss="12.52" traveltime="120.80">
        <walk depart="102.90" departPos="10.42" arrival="223.70" arrivalPos="27.04" duration="120.80" routeLength="157.27" timeLoss="12.52" maxSpeed="1.45" waitingTime="0.00"/>
    </personinfo>
    <tripinfo id="BiñantoCalamba_6.4" depart="36.60" departLane="553887793#0_1" departPos="2.30" departPosLat="0.00" departSpeed="30.22" departDelay="0.00" arrival="230.60" arrivalLane="-185930141#0_1" arrivalPos="428.88" arrivalPosLat="0.00" arrivalSpeed="29.98" duration="194.00" routeLength="1510.47" waitingTime="122.50" waitingCount="2" stopTime="0.00" timeLoss="143.94" rerouteNo="1" devices="tripinfo_BiñantoCalamba_6.4 routing_BiñantoCalamba_6.4" vType="motorcycle" speedFactor="1.09" vaporized=""/>
    <tripinfo id="BalibagotoNuvali_6.6" depart="157.80" departLane="777619905_1" departPos="5.10" departPosLat="0.00" departSpeed="0.00" departDelay="0.00" arrival="235.70" arrivalLane="145507700#3_1" arrivalPos="783.31" arrivalPosLat="-0.00" arrivalSpeed="27.77" duration="77.90" routeLength="1312.87" waitingTime="0.00" waitingCount="0" stopTime="0.00" timeLoss="24.82" rerouteNo="1" devices="tripinfo_BalibagotoNuvali_6.6 routing_BalibagotoNuvali_6.6" vType="jeep" speedFactor="1.00" vaporized=""/>
    <personinfo id="pf_PalengketoJollibee_6.6" depart="105.40" type="ped" speedFactor="1.04" duration="131.80" waitingTime="3.50" timeLoss="17.58" traveltime="131.80">
        <walk depart="105.40" departPos="25.00" arrival="237.20" arrivalPos="5.21" duration="131.80" routeLength="164.52" timeLoss="17.58" maxSpeed="1.44" waitingTime="3.50"/>
    </personinfo>
    <personinfo id="pf_JollibeetoPalengke_6.5" depart="85.80" type="ped" speedFactor="0.83" duration="151.70" waitingTime="0.20" timeLoss="15.43" traveltime="151.70">
        <walk depart="85.80" departPos="10.42" arrival="237.50" arrivalPos="27.04" duration="151.70" routeLength="157.27" timeLoss="15.43" maxSpeed="1.15" waitingTime="0.20"/>
    </personinfo>
    <tripinfo id="BalibagotoCalamba_6.3" depart="93.90" departLane="145507698_1" departPos="2.30" departPosLat="0.00" departSpeed="0.45" departDelay="11.50" arrival="238.30" arrivalLane="-185930141#0_1" arrivalPos="428.88" arrivalPosLat="0.00" arrivalSpeed="28.13" duration="144.40" routeLength="1531.99" waitingTime="24.20" waitingCount="1" stopTime="0.00" timeLoss="60.77" rerouteNo="1" devices="tripinfo_BalibagotoCalamba_6.3 routing_BalibagotoCalamba_6.3" vType="tricycle" speedFactor="1.01" vaporized=""/>
    <personinfo id="pf_PalengketoJollibee_6.5" depart="87.90" type="ped" speedFactor="0.86" duration="152.10" waitingTime="0.20" timeLoss="15.12" traveltime="152.10">
        <walk depart="87.90" departPos="25.00" arrival="240.00" arrivalPos="5.21" duration="152.10" routeLength="164.52" timeLoss="15.12" maxSpeed="1.20" waitingTime="0.20"/>
    </personinfo>
    <tripinfo id="BiñantoCalamba_6.0" depart="15.10" departLane="553887793#0_1" departPos="2.30" departPosLat="0.00" departSpeed="25.34" departDelay="0.00" arrival="240.80" arrivalLane="-185930141#0_1" arrivalPos="428.88" arrivalPosLat="0.00" arrivalSpeed="25.27" duration="225.70" routeLength="1510.47" waitingTime="137.50" waitingCount="2" stopTime="0.00" timeLoss="165.99" rerouteNo="1" devices="tripinfo_BiñantoCalamba_6.0 routing_BiñantoCalamba_6.0" vType="tricycle" speedFactor="0.91" vaporized=""/>
    <tripinfo id="BalibagotoCalamba_6.1" depart="85.50" departLane="145507698_1" departPos="7.55" departPosLat="0.00" departSpeed="0.00" departDelay="4.60" arrival="244.40" arrivalLane="-185930141#0_2" arrivalPos="428.88" arrivalPosLat="0.00" arrivalSpeed="27.77" duration="158.90" routeLength="1523.59" waitingTime="28.50" waitingCount="2" stopTime="0.00" timeLoss="74.69" rerouteNo="1" devices="tripinfo_BalibagotoCalamba_6.1 routing_BalibagotoCalamba_6.1" vType="jeep" speedFactor="1.00" vaporized=""/>
    <tripinfo id="BiñantoCalamba_6.2" depart="21.20" departLane="553887793#0_1" departPos="7.20" departPosLat="0.00" departSpeed="26.59" departDelay="0.00" arrival="245.60" arrivalLane="-185930141#0_1" arrivalPos="428.88" arrivalPosLat="-0.00" arrivalSpeed="26.56" duration="224.40" routeLength="1505.57" waitingTime="121.60" waitingCount="2" stopTime="0.00" timeLoss="167.70" rerouteNo="1" devices="tripinfo_BiñantoCalamba_6.2 routing_BiñantoCalamba_6.2" vType="truck" speedFactor="0.96" vaporized=""/>
    <tripinfo id="BiñantoCalamba_6.1" depart="18.60" departLane="553887793#0_2" departPos="5.10" departPosLat="0.00" departSpeed="30.94" departDelay="0.00" arrival="245.70" arrivalLane="-185930141#0_2" arrivalPos="428.88" arrivalPosLat="-0.01" arrivalSpeed="29.95" duration="227.10" routeLength="1507.67" waitingTime="137.20" waitingCount="2" stopTime="0.00" timeLoss="178.32" rerouteNo="1" devices="tripinfo_BiñantoCalamba_6.1 routing_BiñantoCalamba_6.1" vType="car" speedFactor="1.11" vaporized=""/>
    <tripinfo id="BiñantoCalamba_6.3" depart="23.50" departLane="553887793#0_2" departPos="2.30" departPosLat="0.00" departSpeed="28.89" departDelay="0.00" arrival="246.90" arrivalLane="-185930141#0_2" arrivalPos="428.88" arrivalPosLat="0.00" arrivalSpeed="28.86" duration="223.40" routeLength="1510.47" waitingTime="127.60" waitingCount="2" stopTime="0.00" timeLoss="171.09" rerouteNo="1" devices="tripinfo_BiñantoCalamba_6.3 routing_BiñantoCalamba_6.3" vType="tricycle" speedFactor="1.04" vaporized=""/>
    <tripinfo id="BalibagotoCalamba_6.4" depart="100.50" departLane="145507698_1" departPos="7.55" departPosLat="0.00" departSpeed="0.00" departDelay="15.30" arrival="248.10" arrivalLane="-185930141#0_1" arrivalPos="428.88" arrivalPosLat="0.00" arrivalSpeed="27.74" duration="147.60" routeLength="1526.74" waitingTime="14.50" waitingCount="3" stopTime="0.00" timeLoss="63.03" rerouteNo="1" devices="tripinfo_BalibagotoCalamba_6.4 routing_BalibagotoCalamba_6.4" vType="bus" speedFactor="1.00" vaporized=""/>
    <tripinfo id="CalambatoBalibago_6.0" depart="150.70" departLane="185930141#0_2" departPos="8.10" departPosLat="0.00" departSpeed="27.41" departDelay="0.00" arrival="248.70" arrivalLane="89908334_1" arrivalPos="36.84" arrivalPosLat="0.00" arrivalSpeed="7.64" duration="98.00" routeLength="908.17" waitingTime="20.00" waitingCount="2" stopTime="0.00" timeLoss="56.73" rerouteNo="1" devices="tripinfo_CalambatoBalibago_6.0 routing_CalambatoBalibago_6.0" vType="jeep" speedFactor="1.00" vaporized=""/>
    <tripinfo id="BiñantoCalamba_6.5" depart="178.20" departLane="553887793#0_1" departPos="5.10" departPosLat="0.00" departSpeed="28.47" departDelay="0.00" arrival="249.50" arrivalLane="-185930141#0_1" arrivalPos="428.88" arrivalPosLat="-0.00" arrivalSpeed="28.36" duration="71.30" routeLength="1507.67" waitingTime="0.00" waitingCount="0" stopTime="0.00" timeLoss="18.35" rerouteNo="1" devices="tripinfo_BiñantoCalamba_6.5 routing_BiñantoCalamba_6.5" vType="car" speedFactor="1.02" vaporized=""/>
    <tripinfo id="BalibagotoCalamba_6.2" depart="90.00" departLane="145507698_1" departPos="7.55" departPosLat="0.00" departSpeed="0.00" departDelay="8.40" arrival="249.80" arrivalLane="-185930141#0_2" arrivalPos="428.88" arrivalPosLat="-0.06" arrivalSpeed="27.75" duration="159.80" routeLength="1523.59" waitingTime="22.30" waitingCount="3" stopTime="0.00" timeLoss="75.61" rerouteNo="1" devices="tripinfo_BalibagotoCalamba_6.2 routing_BalibagotoCalamba_6.2" vType="jeep" speedFactor="1.00" vaporized=""/>
    <tripinfo id="BalibagotoCalamba_6.5" depart="105.00" departLane="145507698_1" departPos="2.30" departPosLat="0.00" departSpeed="0.72" departDelay="8.70" arrival="251.20" arrivalLane="-185930141#0_2" arrivalPos="428.88" arrivalPosLat="0.00" arrivalSpeed="28.10" duration="146.20" routeLength="1531.99" waitingTime="18.20" waitingCount="2" stopTime="0.00" timeLoss="62.34" rerouteNo="1" devices="tripinfo_BalibagotoCalamba_6.5 routing_BalibagotoCalamba_6.5" vType="tricycle" speedFactor="1.01" vaporized=""/>
    <tripinfo id="NuvalitoBalibago_6.5" depart="111.50" departLane="-145507700#3_1" departPos="8.10" departPosLat="0.00" departSpeed="25.20" departDelay="0.00" arrival="252.40" arrivalLane="32083201#1_1" arrivalPos="58.53" arrivalPosLat="0.00" arrivalSpeed="13.85" duration="140.90" routeLength="2055.09" waitingTime="0.00" waitingCount="0" stopTime="0.00" timeLoss="35.12" rerouteNo="1" devices="tripinfo_NuvalitoBalibago_6.5 routing_NuvalitoBalibago_6.5" vType="jeep" speedFactor="1.00" vaporized=""/>
    <personinfo id="pf_PalengketoJollibee_6.7" depart="123.00" type="ped" speedFactor="1.07" duration="131.80" waitingTime="8.60" timeLoss="20.82" traveltime="131.80">
        <walk depart="123.00" departPos="25.00" arrival="254.80" arrivalPos="5.21" duration="131.80" routeLength="164.52" timeLoss="20.82" maxSpeed="1.48" waitingTime="8.60"/>
    </personinfo>
    <tripinfo id="CalambatoStaRosa_6.0" depart="75.40" departLane="185930141#0_1" departPos="5.10" departPosLat="0.00" departSpeed="28.06" departDelay="0.00" arrival="257.50" arrivalLane="-92878383#0_1" arrivalPos="603.68" arrivalPosLat="0.00" arrivalSpeed="8.39" duration="182.10" routeLength="1808.59" waitingTime="16.10" waitingCount="1" stopTime="0.00" timeLoss="30.65" rerouteNo="1" devices="tripinfo_CalambatoStaRosa_6.0 routing_CalambatoStaRosa_6.0" vType="car" speedFactor="1.01" vaporized=""/>
    <tripinfo id="StaRosatoBiñan_6.0" depart="19.50" departLane="92878383#0_1" departPos="5.10" departPosLat="0.00" departSpeed="7.56" departDelay="0.00" arrival="258.10" arrivalLane="-553887793#0_1" arrivalPos="201.31" arrivalPosLat="-0.00" arrivalSpeed="25.12" duration="238.60" routeLength="1607.72" waitingTime="76.50" waitingCount="1" stopTime="0.00" timeLoss="83.59" rerouteNo="1" devices="tripinfo_StaRosatoBiñan_6.0 routing_StaRosatoBiñan_6.0" vType="car" speedFactor="0.91" vaporized=""/>
    <tripinfo id="NuvalitoStaRosa_6.0" depart="56.20" departLane="-145507700#3_1" departPos="8.10" departPosLat="0.00" departSpeed="27.78" departDelay="0.00" arrival="260.20" arrivalLane="-92878383#0_1" arrivalPos="603.68" arrivalPosLat="-0.00" arrivalSpeed="8.31" duration="204.00" routeLength="2597.04" waitingTime="0.00" waitingCount="0" stopTime="0.00" timeLoss="19.41" rerouteNo="1" devices="tripinfo_NuvalitoStaRosa_6.0 routing_NuvalitoStaRosa_6.0" vType="jeep" speedFactor="1.00" vaporized=""/>
    <personinfo id="pf_JollibeetoSTI_6.0" depart="0.00" type="ped" speedFactor="1.03" duration="261.40" waitingTime="0.70" timeLoss="26.92" traveltime="261.40">
        <walk depart="0.00" departPos="10.42" arrival="261.40" arrivalPos="19.02" duration="261.40" routeLength="335.01" timeLoss="26.92" maxSpeed="1.43" waitingTime="0.70"/>
    </personinfo>
    <tripinfo id="StaRosatoBiñan_6.2" depart="66.30" departLane="92878383#0_1" departPos="2.30" departPosLat="0.00" departSpeed="9.29" departDelay="0.00" arrival="261.50" arrivalLane="-553887793#0_2" arrivalPos="201.31" arrivalPosLat="0.00" arrivalSpeed="30.91" duration="195.20" routeLength="1610.52" waitingTime="53.60" waitingCount="1" stopTime="0.00" timeLoss="68.65" rerouteNo="1" devices="tripinfo_StaRosatoBiñan_6.2 routing_StaRosatoBiñan_6.2" vType="tricycle" speedFactor="1.11" vaporized=""/>
    <personinfo id="pf_JollibeetoPalengke_6.7" depart="120.10" type="ped" speedFactor="0.89" duration="141.80" waitingTime="0.00" timeLoss="13.99" traveltime="141.80">
        <walk depart="120.10" departPos="10.42" arrival="261.90" arrivalPos="27.04" duration="141.80" routeLength="157.27" timeLoss="13.99" maxSpeed="1.23" waitingTime="0.00"/>
    </personinfo>
    <tripinfo id="StaRosatoBiñan_6.1" depart="38.20" departLane="92878383#0_1" departPos="5.10" departPosLat="0.00" departSpeed="7.46" departDelay="0.00" arrival="262.50" arrivalLane="-553887793#0_1" arrivalPos="201.31" arrivalPosLat="-0.00" arrivalSpeed="24.81" duration="224.30" routeLength="1607.72" waitingTime="55.40" waitingCount="1" stopTime="0.00" timeLoss="67.24" rerouteNo="1" devices="tripinfo_StaRosatoBiñan_6.1 routing_StaRosatoBiñan_6.1" vType="car" speedFactor="0.90" vaporized=""/>
    <personinfo id="pf_JollibeetoSTI_6.2" depart="42.90" type="ped" speedFactor="1.22" duration="220.30" waitingTime="1.30" timeLoss="23.02" traveltime="220.30">
        <walk depart="42.90" departPos="10.42" arrival="263.20" arrivalPos="19.02" duration="220.30" routeLength="335.01" timeLoss="23.02" maxSpeed="1.70" waitingTime="1.30"/>
    </personinfo>