<?xml version="1.0" encoding="UTF-8"?>

<!-- generated on 2025-11-13 23:21:53 by Eclipse SUMO GUI Version 1.24.0
<sumoConfiguration xmlns:xsi="http://www.w3.org/2001/XMLSchema-instance" xsi:noNamespaceSchemaLocation="http://sumo.dlr.de/xsd/sumoConfiguration.xsd">

    <input>
        <net-file value="C:\Users\Sammy\Documents\THESIS\DRL_TrafficLight\Olivarez_traci\network\../network/map.net.xml"/>
        <route-files value="C:\Users\Sammy\Documents\THESIS\DRL_TrafficLight\Olivarez_traci\network\olivarez_flows_moderate.xml"/>
        <additional-files value="C:\Users\Sammy\Documents\THESIS\DRL_TrafficLight\Olivarez_traci\network\traffic.taz.xml,C:\Users\Sammy\Documents\THESIS\DRL_TrafficLight\Olivarez_traci\network\../additionals/detectors.add.xml,C:\Users\Sammy\Documents\THESIS\DRL_TrafficLight\Olivarez_traci\network\../additionals/map.poly.xml"/>
    </input>

    <output>
        <output-prefix value="moderate_traffic_"/>
        <emission-output value="C:\Users\Sammy\Documents\THESIS\DRL_TrafficLight\Olivarez_traci\network\emissions.xml"/>
        <summary-output value="C:\Users\Sammy\Documents\THESIS\DRL_TrafficLight\Olivarez_traci\network\summary.xml"/>
        <tripinfo-output value="C:\Users\Sammy\Documents\THESIS\DRL_TrafficLight\Olivarez_traci\network\tripinfo.xml"/>
    </output>

    <time>
        <begin value="0"/>
        <end value="14400"/>
        <step-length value="1"/>
    </time>

    <processing>
        <ignore-route-errors value="true"/>
        <lanechange.duration value="3"/>
    </processing>

    <routing>
        <routing-algorithm value="dijkstra"/>
        <device.rerouting.adaptation-steps value="18"/>
        <device.rerouting.adaptation-interval value="10"/>
    </routing>

    <report>
        <verbose value="true"/>
        <no-warnings value="false"/>
        <duration-log.statistics value="true"/>
    </report>

    <random_number>
        <seed value="23456"/>
    </random_number>

    <gui_only>
        <start value="true"/>
    </gui_only>

</sumoConfiguration>
-->

<tripinfos xmlns:xsi="http://www.w3.org/2001/XMLSchema-instance" xsi:noNamespaceSchemaLocation="http://sumo.dlr.de/xsd/tripinfo_file.xsd">
    <tripinfo id="D1_1.0" depart="3.00" departLane="140483224#12_1" departPos="5.10" departSpeed="31.14" departDelay="0.00" arrival="30.00" arrivalLane="-361256298#1_2" arrivalPos="36.33" arrivalSpeed="11.14" duration="27.00" routeLength="369.44" waitingTime="0.00" waitingCount="0" stopTime="0.00" timeLoss="13.56" rerouteNo="1" devices="tripinfo_D1_1.0 routing_D1_1.0 emissions_D1_1.0" vType="car" speedFactor="1.12" vaporized="">
        <emissions CO_abs="870.29" CO2_abs="92978.02" HC_abs="5.76" PMx_abs="6.31" NOx_abs="33.26" fuel_abs="30141.88" electricity_abs="0.00"/>
    </tripinfo>
    <tripinfo id="D1_1.1" depart="6.00" departLane="140483224#12_1" departPos="8.10" departSpeed="30.72" departDelay="0.00" arrival="34.00" arrivalLane="-361256298#1_2" arrivalPos="36.33" arrivalSpeed="13.42" duration="28.00" routeLength="366.44" waitingTime="0.00" waitingCount="0" stopTime="0.00" timeLoss="13.49" rerouteNo="1" devices="tripinfo_D1_1.1 routing_D1_1.1 emissions_D1_1.1" vType="jeep" speedFactor="1.11" vaporized="">
        <emissions CO_abs="1078.87" CO2_abs="105513.22" HC_abs="7.13" PMx_abs="6.52" NOx_abs="38.42" fuel_abs="34205.51" electricity_abs="0.00"/>
    </tripinfo>
    <tripinfo id="D1_1.2" depart="8.00" departLane="140483224#12_1" departPos="5.10" departSpeed="29.92" departDelay="0.00" arrival="38.00" arrivalLane="-361256298#1_2" arrivalPos="36.33" arrivalSpeed="13.25" duration="30.00" routeLength="369.44" waitingTime="0.00" waitingCount="0" stopTime="0.00" timeLoss="15.17" rerouteNo="1" devices="tripinfo_D1_1.2 routing_D1_1.2 emissions_D1_1.2" vType="car" speedFactor="1.08" vaporized="">
        <emissions CO_abs="876.82" CO2_abs="96465.18" HC_abs="5.80" PMx_abs="6.24" NOx_abs="34.13" fuel_abs="31272.36" electricity_abs="0.00"/>
    </tripinfo>
    <tripinfo id="B1_1.0" depart="7.00" departLane="939610874_1" departPos="2.30" departSpeed="3.54" departDelay="0.00" arrival="43.00" arrivalLane="-361256298#1_1" arrivalPos="36.33" arrivalSpeed="12.64" duration="36.00" routeLength="277.75" waitingTime="0.00" waitingCount="0" stopTime="0.00" timeLoss="8.73" rerouteNo="1" devices="tripinfo_B1_1.0 routing_B1_1.0 emissions_B1_1.0" vType="tricycle" speedFactor="1.13" vaporized="">
        <emissions CO_abs="761.61" CO2_abs="52661.64" HC_abs="643.18" PMx_abs="13.46" NOx_abs="55.02" fuel_abs="17075.92" electricity_abs="0.00"/>
    </tripinfo>
    <tripinfo id="D1_1.3" depart="10.00" departLane="140483224#12_1" departPos="12.10" departSpeed="27.78" departDelay="0.00" arrival="43.00" arrivalLane="-361256298#1_2" arrivalPos="36.33" arrivalSpeed="8.23" duration="33.00" routeLength="362.44" waitingTime="0.00" waitingCount="0" stopTime="0.00" timeLoss="18.32" rerouteNo="1" devices="tripinfo_D1_1.3 routing_D1_1.3 emissions_D1_1.3" vType="bus" speedFactor="1.00" vaporized="">
        <emissions CO_abs="71.16" CO2_abs="445342.06" HC_abs="6.57" PMx_abs="34.19" NOx_abs="123.68" fuel_abs="143120.98" electricity_abs="0.00"/>
    </tripinfo>
    <tripinfo id="D1_1.4" depart="13.00" departLane="140483224#12_1" departPos="12.10" departSpeed="26.70" departDelay="0.00" arrival="48.00" arrivalLane="-361256298#1_2" arrivalPos="36.33" arrivalSpeed="8.66" duration="35.00" routeLength="362.44" waitingTime="0.00" waitingCount="0" stopTime="0.00" timeLoss="19.69" rerouteNo="1" devices="tripinfo_D1_1.4 routing_D1_1.4 emissions_D1_1.4" vType="bus" speedFactor="1.00" vaporized="">
        <emissions CO_abs="73.25" CO2_abs="439224.61" HC_abs="6.51" PMx_abs="34.88" NOx_abs="123.43" fuel_abs="141154.87" electricity_abs="0.00"/>
    </tripinfo>
    <tripinfo id="D2_1.0" depart="14.00" departLane="140483224#12_1" departPos="2.30" departSpeed="22.71" departDelay="1.00" arrival="50.00" arrivalLane="939610874_1" arrivalPos="50.72" arrivalSpeed="5.08" duration="36.00" routeLength="296.22" waitingTime="0.00" waitingCount="0" stopTime="0.00" timeLoss="8.79" rerouteNo="1" devices="tripinfo_D2_1.0 routing_D2_1.0 emissions_D2_1.0" vType="motorcycle" speedFactor="0.82" vaporized="">
        <emissions CO_abs="1049.16" CO2_abs="38108.13" HC_abs="431.46" PMx_abs="8.56" NOx_abs="50.37" fuel_abs="12356.64" electricity_abs="0.00"/>
    </tripinfo>
    <tripinfo id="D2_1.1" depart="15.00" departLane="140483224#12_1" departPos="8.10" departSpeed="10.93" departDelay="0.00" arrival="52.00" arrivalLane="939610874_1" arrivalPos="50.72" arrivalSpeed="7.47" duration="37.00" routeLength="290.42" waitingTime="0.00" waitingCount="0" stopTime="0.00" timeLoss="14.62" rerouteNo="1" devices="tripinfo_D2_1.1 routing_D2_1.1 emissions_D2_1.1" vType="jeep" speedFactor="0.99" vaporized="">
        <emissions CO_abs="452.30" CO2_abs="78577.76" HC_abs="2.99" PMx_abs="4.83" NOx_abs="25.63" fuel_abs="25473.65" electricity_abs="0.00"/>
    </tripinfo>
    <tripinfo id="B1_1.1" depart="28.00" departLane="939610874_1" departPos="5.10" departSpeed="7.87" departDelay="0.00" arrival="67.00" arrivalLane="-361256298#1_1" arrivalPos="36.33" arrivalSpeed="11.81" duration="39.00" routeLength="274.95" waitingTime="0.00" waitingCount="0" stopTime="0.00" timeLoss="6.71" rerouteNo="1" devices="tripinfo_B1_1.1 routing_B1_1.1 emissions_B1_1.1" vType="car" speedFactor="0.94" vaporized="">
        <emissions CO_abs="247.69" CO2_abs="76711.25" HC_abs="1.64" PMx_abs="5.51" NOx_abs="25.09" fuel_abs="24868.76" electricity_abs="0.00"/>
    </tripinfo>
    <tripinfo id="A1_1.0" depart="2.00" departLane="-361256298#1_1" departPos="7.20" departSpeed="29.26" departDelay="0.00" arrival="76.00" arrivalLane="939610874_1" arrivalPos="50.72" arrivalSpeed="8.43" duration="74.00" routeLength="315.14" waitingTime="42.00" waitingCount="1" stopTime="0.00" timeLoss="50.81" rerouteNo="1" devices="tripinfo_A1_1.0 routing_A1_1.0 emissions_A1_1.0" vType="truck" speedFactor="1.05" vaporized="">
        <emissions CO_abs="79.10" CO2_abs="179433.55" HC_abs="6.17" PMx_abs="99.28" NOx_abs="47.31" fuel_abs="57662.62" electricity_abs="0.00"/>
    </tripinfo>
    <tripinfo id="A1_1.1" depart="5.00" departLane="-361256298#1_1" departPos="5.10" departSpeed="28.77" departDelay="0.00" arrival="80.00" arrivalLane="939610874_1" arrivalPos="50.72" arrivalSpeed="8.60" duration="75.00" routeLength="317.24" waitingTime="40.00" waitingCount="1" stopTime="0.00" timeLoss="51.20" rerouteNo="1" devices="tripinfo_A1_1.1 routing_A1_1.1 emissions_A1_1.1" vType="car" speedFactor="1.04" vaporized="">
        <emissions CO_abs="156.18" CO2_abs="115058.84" HC_abs="1.06" PMx_abs="4.37" NOx_abs="42.21" fuel_abs="37301.04" electricity_abs="0.00"/>
    </tripinfo>
    <tripinfo id="B1_1.2" depart="47.00" departLane="939610874_1" departPos="5.10" departSpeed="5.68" departDelay="6.00" arrival="93.00" arrivalLane="-361256298#1_1" arrivalPos="36.33" arrivalSpeed="12.53" duration="46.00" routeLength="274.95" waitingTime="0.00" waitingCount="0" stopTime="0.00" timeLoss="8.09" rerouteNo="1" devices="tripinfo_B1_1.2 routing_B1_1.2 emissions_B1_1.2" vType="car" speedFactor="0.82" vaporized="">
        <emissions CO_abs="249.03" CO2_abs="86057.36" HC_abs="1.65" PMx_abs="5.62" NOx_abs="28.39" fuel_abs="27898.65" electricity_abs="0.00"/>
    </tripinfo>
    <tripinfo id="B1_1.3" depart="51.00" departLane="939610874_1" departPos="7.20" departSpeed="1.70" departDelay="4.00" arrival="96.00" arrivalLane="-361256298#1_1" arrivalPos="36.33" arrivalSpeed="9.94" duration="45.00" routeLength="272.85" waitingTime="0.00" waitingCount="0" stopTime="0.00" timeLoss="15.11" rerouteNo="1" devices="tripinfo_B1_1.3 routing_B1_1.3 emissions_B1_1.3" vType="truck" speedFactor="1.03" vaporized="">
        <emissions CO_abs="58.74" CO2_abs="164234.58" HC_abs="4.04" PMx_abs="49.74" NOx_abs="59.79" fuel_abs="52779.00" electricity_abs="0.00"/>
    </tripinfo>
    <tripinfo id="B1_1.4" depart="54.00" departLane="939610874_1" departPos="2.30" departSpeed="2.04" departDelay="4.00" arrival="99.00" arrivalLane="-361256298#1_1" arrivalPos="36.33" arrivalSpeed="11.90" duration="45.00" routeLength="277.75" waitingTime="0.00" waitingCount="0" stopTime="0.00" timeLoss="11.29" rerouteNo="1" devices="tripinfo_B1_1.4 routing_B1_1.4 emissions_B1_1.4" vType="tricycle" speedFactor="0.92" vaporized="">
        <emissions CO_abs="546.11" CO2_abs="56383.38" HC_abs="700.67" PMx_abs="14.96" NOx_abs="49.64" fuel_abs="18282.80" electricity_abs="0.00"/>
    </tripinfo>
    <tripinfo id="B1_1.5" depart="57.00" departLane="939610874_1" departPos="5.10" departSpeed="1.69" departDelay="5.00" arrival="101.00" arrivalLane="-361256298#1_1" arrivalPos="36.33" arrivalSpeed="12.21" duration="44.00" routeLength="274.95" waitingTime="0.00" waitingCount="0" stopTime="0.00" timeLoss="10.99" rerouteNo="1" devices="tripinfo_B1_1.5 routing_B1_1.5 emissions_B1_1.5" vType="car" speedFactor="0.92" vaporized="">
        <emissions CO_abs="241.08" CO2_abs="85043.56" HC_abs="1.59" PMx_abs="5.71" NOx_abs="27.60" fuel_abs="27569.94" electricity_abs="0.00"/>
    </tripinfo>
    <tripinfo id="C2_1.0" depart="1.00" departLane="440471861#6_2" departPos="5.10" departSpeed="15.06" departDelay="1.00" arrival="129.00" arrivalLane="939610874_1" arrivalPos="50.72" arrivalSpeed="4.31" duration="128.00" routeLength="339.74" waitingTime="91.00" waitingCount="1" stopTime="0.00" timeLoss="106.16" rerouteNo="1" devices="tripinfo_C2_1.0 routing_C2_1.0 emissions_C2_1.0" vType="car" speedFactor="1.11" vaporized="">
        <emissions CO_abs="641.40" CO2_abs="229058.16" HC_abs="4.27" PMx_abs="7.04" NOx_abs="87.35" fuel_abs="74258.42" electricity_abs="0.00"/>
    </tripinfo>
    <tripinfo id="C2_1.1" depart="2.00" departLane="440471861#6_2" departPos="7.20" departSpeed="10.17" departDelay="1.00" arrival="137.00" arrivalLane="939610874_1" arrivalPos="50.72" arrivalSpeed="3.79" duration="135.00" routeLength="337.64" waitingTime="88.00" waitingCount="1" stopTime="0.00" timeLoss="110.45" rerouteNo="1" devices="tripinfo_C2_1.1 routing_C2_1.1 emissions_C2_1.1" vType="truck" speedFactor="0.98" vaporized="">
        <emissions CO_abs="156.18" CO2_abs="409711.97" HC_abs="12.52" PMx_abs="182.11" NOx_abs="91.22" fuel_abs="131662.98" electricity_abs="0.00"/>
    </tripinfo>
    <tripinfo id="A3_1.0" depart="3.00" departLane="-361256298#1_2" departPos="2.30" departSpeed="28.74" departDelay="0.00" arrival="174.00" arrivalLane="140483224#12_1" arrivalPos="63.66" arrivalSpeed="11.46" duration="171.00" routeLength="510.31" waitingTime="111.00" waitingCount="3" stopTime="0.00" timeLoss="151.24" rerouteNo="1" devices="tripinfo_A3_1.0 routing_A3_1.0 emissions_A3_1.0" vType="tricycle" speedFactor="1.03" vaporized="">
        <emissions CO_abs="4877.49" CO2_abs="286874.57" HC_abs="4113.16" PMx_abs="85.51" NOx_abs="214.92" fuel_abs="93022.98" electricity_abs="0.00"/>
    </tripinfo>
    <tripinfo id="A3_1.1" depart="10.00" departLane="-361256298#1_2" departPos="5.10" departSpeed="25.57" departDelay="0.00" arrival="176.00" arrivalLane="140483224#12_1" arrivalPos="63.66" arrivalSpeed="12.61" duration="166.00" routeLength="507.51" waitingTime="93.00" waitingCount="3" stopTime="0.00" timeLoss="142.88" rerouteNo="1" devices="tripinfo_A3_1.1 routing_A3_1.1 emissions_A3_1.1" vType="car" speedFactor="0.92" vaporized="">
        <emissions CO_abs="753.25" CO2_abs="318382.98" HC_abs="4.98" PMx_abs="9.74" NOx_abs="115.13" fuel_abs="103216.23" electricity_abs="0.00"/>
    </tripinfo>
    <tripinfo id="A3_1.2" depart="14.00" departLane="-361256298#1_2" departPos="5.10" departSpeed="29.07" departDelay="0.00" arrival="176.00" arrivalLane="140483224#12_2" arrivalPos="63.66" arrivalSpeed="10.07" duration="162.00" routeLength="507.51" waitingTime="87.00" waitingCount="3" stopTime="0.00" timeLoss="141.10" rerouteNo="1" devices="tripinfo_A3_1.2 routing_A3_1.2 emissions_A3_1.2" vType="car" speedFactor="1.05" vaporized="">
        <emissions CO_abs="762.73" CO2_abs="308286.85" HC_abs="5.04" PMx_abs="9.28" NOx_abs="109.59" fuel_abs="99943.05" electricity_abs="0.00"/>
    </tripinfo>
    <tripinfo id="C3_1.2" depart="5.00" departLane="440471861#6_1" departPos="8.10" departSpeed="26.19" departDelay="0.00" arrival="178.00" arrivalLane="140483224#12_2" arrivalPos="63.66" arrivalSpeed="11.06" duration="173.00" routeLength="509.15" waitingTime="112.00" waitingCount="2" stopTime="0.00" timeLoss="153.15" rerouteNo="1" devices="tripinfo_C3_1.2 routing_C3_1.2 emissions_C3_1.2" vType="jeep" speedFactor="1.05" vaporized="">
        <emissions CO_abs="1577.67" CO2_abs="381638.10" HC_abs="10.42" PMx_abs="11.42" NOx_abs="140.28" fuel_abs="123722.27" electricity_abs="0.00"/>
    </tripinfo>
    <tripinfo id="B3_1.0" depart="33.00" departLane="939610874_1" departPos="5.10" departSpeed="8.48" departDelay="0.00" arrival="178.00" arrivalLane="140483224#12_1" arrivalPos="63.66" arrivalSpeed="13.02" duration="145.00" routeLength="520.55" waitingTime="69.00" waitingCount="3" stopTime="0.00" timeLoss="109.06" rerouteNo="1" devices="tripinfo_B3_1.0 routing_B3_1.0 emissions_B3_1.0" vType="car" speedFactor="1.02" vaporized="">
        <emissions CO_abs="1506.72" CO2_abs="324635.28" HC_abs="9.97" PMx_abs="13.06" NOx_abs="118.82" fuel_abs="105242.51" electricity_abs="0.00"/>
    </tripinfo>
    <tripinfo id="C3_1.0" depart="0.00" departLane="440471861#6_1" departPos="5.10" departSpeed="26.02" departDelay="0.00" arrival="180.00" arrivalLane="140483224#12_2" arrivalPos="63.66" arrivalSpeed="12.07" duration="180.00" routeLength="512.15" waitingTime="120.00" waitingCount="3" stopTime="0.00" timeLoss="157.15" rerouteNo="1" devices="tripinfo_C3_1.0 routing_C3_1.0 emissions_C3_1.0" vType="car" speedFactor="0.94" vaporized="">
        <emissions CO_abs="1203.97" CO2_abs="365033.90" HC_abs="8.01" PMx_abs="11.44" NOx_abs="134.55" fuel_abs="118339.81" electricity_abs="0.00"/>
    </tripinfo>
    <tripinfo id="C3_1.1" depart="2.00" departLane="440471861#6_1" departPos="8.10" departSpeed="27.27" departDelay="0.00" arrival="181.00" arrivalLane="140483224#12_2" arrivalPos="63.66" arrivalSpeed="12.12" duration="179.00" routeLength="509.15" waitingTime="116.00" waitingCount="2" stopTime="0.00" timeLoss="158.79" rerouteNo="1" devices="tripinfo_C3_1.1 routing_C3_1.1 emissions_C3_1.1" vType="jeep" speedFactor="1.03" vaporized="">
        <emissions CO_abs="962.51" CO2_abs="344174.98" HC_abs="6.39" PMx_abs="10.04" NOx_abs="126.24" fuel_abs="111577.77" electricity_abs="0.00"/>
    </tripinfo>
    <tripinfo id="C3_1.3" depart="6.00" departLane="440471861#6_1" departPos="12.10" departSpeed="21.56" departDelay="0.00" arrival="184.00" arrivalLane="140483224#12_2" arrivalPos="63.66" arrivalSpeed="12.03" duration="178.00" routeLength="505.15" waitingTime="116.00" waitingCount="2" stopTime="0.00" timeLoss="157.16" rerouteNo="1" devices="tripinfo_C3_1.3 routing_C3_1.3 emissions_C3_1.3" vType="bus" speedFactor="1.00" vaporized="">
        <emissions CO_abs="409.84" CO2_abs="1236449.78" HC_abs="28.66" PMx_abs="251.55" NOx_abs="772.56" fuel_abs="397359.46" electricity_abs="0.00"/>
    </tripinfo>
    <tripinfo id="C3_1.4" depart="7.00" departLane="440471861#6_1" departPos="2.30" departSpeed="20.20" departDelay="0.00" arrival="186.00" arrivalLane="140483224#12_2" arrivalPos="63.66" arrivalSpeed="22.28" duration="179.00" routeLength="514.95" waitingTime="113.00" waitingCount="2" stopTime="0.00" timeLoss="154.56" rerouteNo="1" devices="tripinfo_C3_1.4 routing_C3_1.4 emissions_C3_1.4" vType="motorcycle" speedFactor="0.88" vaporized="">
        <emissions CO_abs="3958.62" CO2_abs="277539.48" HC_abs="3979.67" PMx_abs="80.56" NOx_abs="239.10" fuel_abs="89995.38" electricity_abs="0.00"/>
    </tripinfo>
    <tripinfo id="B1_1.6" depart="79.00" departLane="939610874_1" departPos="5.10" departSpeed="4.32" departDelay="7.00" arrival="223.00" arrivalLane="-361256298#1_1" arrivalPos="36.33" arrivalSpeed="4.51" duration="144.00" routeLength="274.95" waitingTime="96.00" waitingCount="1" stopTime="0.00" timeLoss="113.39" rerouteNo="1" devices="tripinfo_B1_1.6 routing_B1_1.6 emissions_B1_1.6" vType="car" speedFactor="1.00" vaporized="">
        <emissions CO_abs="193.04" CO2_abs="233418.27" HC_abs="1.28" PMx_abs="5.61" NOx_abs="86.43" fuel_abs="75672.16" electricity_abs="0.00"/>
    </tripinfo>
    <tripinfo id="B1_1.7" depart="81.00" departLane="939610874_1" departPos="5.10" departSpeed="3.38" departDelay="7.00" arrival="225.00" arrivalLane="-361256298#1_1" arrivalPos="36.33" arrivalSpeed="5.94" duration="144.00" routeLength="274.95" waitingTime="96.00" waitingCount="1" stopTime="0.00" timeLoss="113.07" rerouteNo="1" devices="tripinfo_B1_1.7 routing_B1_1.7 emissions_B1_1.7" vType="car" speedFactor="0.99" vaporized="">
        <emissions CO_abs="186.93" CO2_abs="229843.73" HC_abs="1.24" PMx_abs="5.04" NOx_abs="84.69" fuel_abs="74513.28" electricity_abs="0.00"/>
    </tripinfo>
    <tripinfo id="B1_1.8" depart="91.00" departLane="939610874_1" departPos="8.10" departSpeed="5.15" departDelay="13.00" arrival="233.00" arrivalLane="-361256298#1_1" arrivalPos="36.33" arrivalSpeed="9.61" duration="142.00" routeLength="271.95" waitingTime="95.00" waitingCount="1" stopTime="0.00" timeLoss="110.24" rerouteNo="1" devices="tripinfo_B1_1.8 routing_B1_1.8 emissions_B1_1.8" vType="jeep" speedFactor="0.95" vaporized="">
        <emissions CO_abs="223.61" CO2_abs="233256.68" HC_abs="1.48" PMx_abs="4.93" NOx_abs="85.16" fuel_abs="75619.63" electricity_abs="0.00"/>
    </tripinfo>
    <tripinfo id="B1_1.9" depart="98.00" departLane="939610874_1" departPos="2.30" departSpeed="1.23" departDelay="8.00" arrival="236.00" arrivalLane="-361256298#1_1" arrivalPos="36.33" arrivalSpeed="12.32" duration="138.00" routeLength="277.75" waitingTime="87.00" waitingCount="1" stopTime="0.00" timeLoss="106.53" rerouteNo="1" devices="tripinfo_B1_1.9 routing_B1_1.9 emissions_B1_1.9" vType="tricycle" speedFactor="0.98" vaporized="">
        <emissions CO_abs="615.10" CO2_abs="192726.75" HC_abs="2918.65" PMx_abs="61.55" NOx_abs="103.36" fuel_abs="62494.79" electricity_abs="0.00"/>
    </tripinfo>
    <tripinfo id="B1_1.10" depart="102.00" departLane="939610874_1" departPos="7.20" departSpeed="2.05" departDelay="10.00" arrival="238.00" arrivalLane="-361256298#1_1" arrivalPos="36.33" arrivalSpeed="9.93" duration="136.00" routeLength="272.85" waitingTime="87.00" waitingCount="1" stopTime="0.00" timeLoss="105.99" rerouteNo="1" devices="tripinfo_B1_1.10 routing_B1_1.10 emissions_B1_1.10" vType="truck" speedFactor="1.00" vaporized="">
        <emissions CO_abs="156.84" CO2_abs="339491.07" HC_abs="11.99" PMx_abs="187.80" NOx_abs="73.44" fuel_abs="109094.77" electricity_abs="0.00"/>
    </tripinfo>
    <tripinfo id="D2_1.2" depart="20.00" departLane="140483224#12_1" departPos="8.10" departSpeed="23.64" departDelay="0.00" arrival="239.00" arrivalLane="939610874_1" arrivalPos="50.72" arrivalSpeed="5.14" duration="219.00" routeLength="290.42" waitingTime="174.00" waitingCount="2" stopTime="0.00" timeLoss="195.73" rerouteNo="1" devices="tripinfo_D2_1.2 routing_D2_1.2 emissions_D2_1.2" vType="jeep" speedFactor="0.95" vaporized="">
        <emissions CO_abs="136.42" CO2_abs="326943.06" HC_abs="0.92" PMx_abs="3.36" NOx_abs="126.01" fuel_abs="105992.61" electricity_abs="0.00"/>
    </tripinfo>
    <tripinfo id="C1_1.0" depart="0.00" departLane="440471861#6_2" departPos="2.30" departSpeed="25.18" departDelay="0.00" arrival="242.00" arrivalLane="-361256298#1_1" arrivalPos="36.33" arrivalSpeed="12.83" duration="242.00" routeLength="434.08" waitingTime="201.00" waitingCount="4" stopTime="0.00" timeLoss="223.60" rerouteNo="1" devices="tripinfo_C1_1.0 routing_C1_1.0 emissions_C1_1.0" vType="motorcycle" speedFactor="0.91" vaporized="">
        <emissions CO_abs="5030.01" CO2_abs="384740.09" HC_abs="5798.96" PMx_abs="118.04" NOx_abs="282.62" fuel_abs="124757.40" electricity_abs="0.00"/>
    </tripinfo>
    <tripinfo id="D2_1.3" depart="31.00" departLane="140483224#12_1" departPos="5.10" departSpeed="13.85" departDelay="1.00" arrival="243.00" arrivalLane="939610874_1" arrivalPos="50.72" arrivalSpeed="8.28" duration="212.00" routeLength="293.42" waitingTime="162.00" waitingCount="3" stopTime="0.00" timeLoss="192.59" rerouteNo="1" devices="tripinfo_D2_1.3 routing_D2_1.3 emissions_D2_1.3" vType="car" speedFactor="1.20" vaporized="">
        <emissions CO_abs="392.88" CO2_abs="354142.82" HC_abs="2.60" PMx_abs="5.80" NOx_abs="133.66" fuel_abs="114810.09" electricity_abs="0.00"/>
    </tripinfo>
    <tripinfo id="B1_1.11" depart="113.00" departLane="939610874_1" departPos="7.20" departSpeed="5.80" departDelay="16.00" arrival="244.00" arrivalLane="-361256298#1_1" arrivalPos="36.33" arrivalSpeed="6.64" duration="131.00" routeLength="272.85" waitingTime="79.00" waitingCount="1" stopTime="0.00" timeLoss="97.91" rerouteNo="1" devices="tripinfo_B1_1.11 routing_B1_1.11 emissions_B1_1.11" vType="truck" speedFactor="0.92" vaporized="">
        <emissions CO_abs="147.82" CO2_abs="310486.36" HC_abs="11.17" PMx_abs="176.86" NOx_abs="67.25" fuel_abs="99773.75" electricity_abs="0.00"/>
    </tripinfo>
    <tripinfo id="D2_1.4" depart="36.00" departLane="140483224#12_1" departPos="2.30" departSpeed="24.36" departDelay="0.00" arrival="245.00" arrivalLane="939610874_1" arrivalPos="50.72" arrivalSpeed="5.18" duration="209.00" routeLength="296.22" waitingTime="153.00" waitingCount="3" stopTime="0.00" timeLoss="185.77" rerouteNo="1" devices="tripinfo_D2_1.4 routing_D2_1.4 emissions_D2_1.4" vType="motorcycle" speedFactor="0.96" vaporized="">
        <emissions CO_abs="1481.86" CO2_abs="299244.83" HC_abs="4592.57" PMx_abs="95.72" NOx_abs="166.83" fuel_abs="97034.99" electricity_abs="0.00"/>
    </tripinfo>
    <tripinfo id="D2_1.5" depart="42.00" departLane="140483224#12_1" departPos="2.30" departSpeed="16.56" departDelay="1.00" arrival="246.00" arrivalLane="939610874_1" arrivalPos="50.72" arrivalSpeed="8.52" duration="204.00" routeLength="296.22" waitingTime="148.00" waitingCount="3" stopTime="0.00" timeLoss="183.29" rerouteNo="1" devices="tripinfo_D2_1.5 routing_D2_1.5 emissions_D2_1.5" vType="motorcycle" speedFactor="1.07" vaporized="">
        <emissions CO_abs="939.70" CO2_abs="291816.13" HC_abs="4426.45" PMx_abs="92.83" NOx_abs="156.16" fuel_abs="94626.09" electricity_abs="0.00"/>
    </tripinfo>
    <tripinfo id="A1_1.2" depart="30.00" departLane="-361256298#1_1" departPos="2.30" departSpeed="30.99" departDelay="0.00" arrival="248.00" arrivalLane="939610874_1" arrivalPos="50.72" arrivalSpeed="7.71" duration="218.00" routeLength="320.04" waitingTime="172.00" waitingCount="3" stopTime="0.00" timeLoss="196.16" rerouteNo="1" devices="tripinfo_A1_1.2 routing_A1_1.2 emissions_A1_1.2" vType="motorcycle" speedFactor="1.12" vaporized="">
        <emissions CO_abs="1549.11" CO2_abs="315971.83" HC_abs="4824.77" PMx_abs="99.93" NOx_abs="186.62" fuel_abs="102458.79" electricity_abs="0.00"/>
    </tripinfo>
    <tripinfo id="A1_1.3" depart="31.00" departLane="-361256298#1_1" departPos="12.10" departSpeed="16.31" departDelay="0.00" arrival="251.00" arrivalLane="939610874_1" arrivalPos="50.72" arrivalSpeed="7.88" duration="220.00" routeLength="310.24" waitingTime="162.00" waitingCount="3" stopTime="0.00" timeLoss="195.69" rerouteNo="1" devices="tripinfo_A1_1.3 routing_A1_1.3 emissions_A1_1.3" vType="bus" speedFactor="1.00" vaporized="">
        <emissions CO_abs="477.03" CO2_abs="1022056.61" HC_abs="30.42" PMx_abs="307.83" NOx_abs="912.81" fuel_abs="328458.06" electricity_abs="0.00"/>
    </tripinfo>
    <tripinfo id="A1_1.4" depart="38.00" departLane="-361256298#1_1" departPos="8.10" departSpeed="26.61" departDelay="0.00" arrival="254.00" arrivalLane="939610874_1" arrivalPos="50.72" arrivalSpeed="7.56" duration="216.00" routeLength="314.24" waitingTime="157.00" waitingCount="3" stopTime="0.00" timeLoss="192.69" rerouteNo="1" devices="tripinfo_A1_1.4 routing_A1_1.4 emissions_A1_1.4" vType="jeep" speedFactor="1.05" vaporized="">
        <emissions CO_abs="172.08" CO2_abs="337074.83" HC_abs="1.16" PMx_abs="5.22" NOx_abs="126.92" fuel_abs="109276.95" electricity_abs="0.00"/>
    </tripinfo>
    <tripinfo id="D3_1.0" depart="11.00" departLane="140483224#12_2" departPos="8.10" departSpeed="27.02" departDelay="0.00" arrival="267.00" arrivalLane="440471861#6_2" arrivalPos="125.31" arrivalSpeed="8.16" duration="256.00" routeLength="480.45" waitingTime="200.00" waitingCount="2" stopTime="0.00" timeLoss="235.61" rerouteNo="1" devices="tripinfo_D3_1.0 routing_D3_1.0 emissions_D3_1.0" vType="jeep" speedFactor="0.97" vaporized="">
        <emissions CO_abs="1303.94" CO2_abs="465939.34" HC_abs="8.64" PMx_abs="9.50" NOx_abs="180.05" fuel_abs="151053.15" electricity_abs="0.00"/>
    </tripinfo>
    <tripinfo id="D3_1.1" depart="12.00" departLane="140483224#12_2" departPos="12.10" departSpeed="22.51" departDelay="0.00" arrival="273.00" arrivalLane="440471861#6_2" arrivalPos="125.31" arrivalSpeed="9.00" duration="261.00" routeLength="476.45" waitingTime="196.00" waitingCount="2" stopTime="0.00" timeLoss="240.95" rerouteNo="1" devices="tripinfo_D3_1.1 routing_D3_1.1 emissions_D3_1.1" vType="bus" speedFactor="1.00" vaporized="">
        <emissions CO_abs="575.10" CO2_abs="1367678.71" HC_abs="38.81" PMx_abs="381.04" NOx_abs="1150.75" fuel_abs="439531.11" electricity_abs="0.00"/>
    </tripinfo>
    <tripinfo id="C2_1.2" depart="11.00" departLane="440471861#6_2" departPos="2.30" departSpeed="9.74" departDelay="1.00" arrival="275.00" arrivalLane="939610874_1" arrivalPos="50.72" arrivalSpeed="7.94" duration="264.00" routeLength="342.54" waitingTime="205.00" waitingCount="2" stopTime="0.00" timeLoss="238.65" rerouteNo="1" devices="tripinfo_C2_1.2 routing_C2_1.2 emissions_C2_1.2" vType="motorcycle" speedFactor="0.95" vaporized="">
        <emissions CO_abs="1200.48" CO2_abs="372269.13" HC_abs="5748.34" PMx_abs="120.11" NOx_abs="195.78" fuel_abs="120714.48" electricity_abs="0.00"/>
    </tripinfo>
    <tripinfo id="D3_1.2" depart="14.00" departLane="140483224#12_2" departPos="7.20" departSpeed="25.26" departDelay="0.00" arrival="275.00" arrivalLane="440471861#6_2" arrivalPos="125.31" arrivalSpeed="10.67" duration="261.00" routeLength="481.35" waitingTime="196.00" waitingCount="2" stopTime="0.00" timeLoss="242.74" rerouteNo="1" devices="tripinfo_D3_1.2 routing_D3_1.2 emissions_D3_1.2" vType="truck" speedFactor="1.07" vaporized="">
        <emissions CO_abs="291.60" CO2_abs="677093.65" HC_abs="23.41" PMx_abs="365.32" NOx_abs="122.84" fuel_abs="217583.81" electricity_abs="0.00"/>
    </tripinfo>
    <tripinfo id="C2_1.3" depart="12.00" departLane="440471861#6_2" departPos="5.10" departSpeed="0.11" departDelay="1.00" arrival="277.00" arrivalLane="939610874_1" arrivalPos="50.72" arrivalSpeed="8.55" duration="265.00" routeLength="339.74" waitingTime="204.00" waitingCount="3" stopTime="0.00" timeLoss="242.87" rerouteNo="1" devices="tripinfo_C2_1.3 routing_C2_1.3 emissions_C2_1.3" vType="car" speedFactor="1.11" vaporized="">
        <emissions CO_abs="530.42" CO2_abs="450378.31" HC_abs="3.50" PMx_abs="6.94" NOx_abs="168.46" fuel_abs="146008.65" electricity_abs="0.00"/>
    </tripinfo>
    <tripinfo id="D3_1.3" depart="18.00" departLane="140483224#12_2" departPos="8.10" departSpeed="28.28" departDelay="0.00" arrival="279.00" arrivalLane="440471861#6_2" arrivalPos="125.31" arrivalSpeed="13.01" duration="261.00" routeLength="480.45" waitingTime="201.00" waitingCount="2" stopTime="0.00" timeLoss="244.49" rerouteNo="1" devices="tripinfo_D3_1.3 routing_D3_1.3 emissions_D3_1.3" vType="jeep" speedFactor="1.18" vaporized="">
        <emissions CO_abs="620.26" CO2_abs="429807.04" HC_abs="4.12" PMx_abs="7.85" NOx_abs="163.55" fuel_abs="139339.82" electricity_abs="0.00"/>
    </tripinfo>