<?xml version="1.0" encoding="UTF-8"?>

<!-- generated on 2025-11-10 17:48:22 by Eclipse SUMO GUI Version 1.24.0
<sumoConfiguration xmlns:xsi="http://www.w3.org/2001/XMLSchema-instance" xsi:noNamespaceSchemaLocation="http://sumo.dlr.de/xsd/sumoConfiguration.xsd">

    <input>
        <net-file value="C:\Users\Sammy\Documents\THESIS\DRL_TrafficLight\Olivarez_traci\network\../network/map.net.xml"/>
        <route-files value="C:\Users\Sammy\Documents\THESIS\DRL_TrafficLight\Olivarez_traci\network\olivarez_flows.xml"/>
        <additional-files value="C:\Users\Sammy\Documents\THESIS\DRL_TrafficLight\Olivarez_traci\network\traffic.taz.xml,C:\Users\Sammy\Documents\THESIS\DRL_TrafficLight\Olivarez_traci\network\../additionals/detectors.add.xml,C:\Users\Sammy\Documents\THESIS\DRL_TrafficLight\Olivarez_traci\network\../additionals/map.poly.xml"/>
    </input>

    <output>
        <output-prefix value="olivarez_"/>
        <emission-output value="C:\Users\Sammy\Documents\THESIS\DRL_TrafficLight\Olivarez_traci\network\emissions.xml"/>
        <summary-output value="C:\Users\Sammy\Documents\THESIS\DRL_TrafficLight\Olivarez_traci\network\summary.xml"/>
        <tripinfo-output value="C:\Users\Sammy\Documents\THESIS\DRL_TrafficLight\Olivarez_traci\network\tripinfo.xml"/>
    </output>

    <time>
        <begin value="0"/>
        <end value="14400"/>
        <step-length value="1"/>
    </time>

    <processing>
        <ignore-route-errors value="true"/>
        <lanechange.duration value="3"/>
    </processing>

    <routing>
        <routing-algorithm value="dijkstra"/>
        <device.rerouting.adaptation-steps value="18"/>
        <device.rerouting.adaptation-interval value="10"/>
    </routing>

    <report>
        <verbose value="true"/>
        <no-warnings value="false"/>
        <duration-log.statistics value="true"/>
    </report>

    <random_number>
        <seed value="12345"/>
    </random_number>

    <gui_only>
        <start value="true"/>
    </gui_only>

</sumoConfiguration>
-->

<tripinfos xmlns:xsi="http://www.w3.org/2001/XMLSchema-instance" xsi:noNamespaceSchemaLocation="http://sumo.dlr.de/xsd/tripinfo_file.xsd">
    <tripinfo id="flow_61.0" depart="0.00" departLane="140483224#12_1" departPos="4.60" departSpeed="0.00" departDelay="0.00" arrival="33.00" arrivalLane="939610874_1" arrivalPos="50.72" arrivalSpeed="5.91" duration="33.00" routeLength="293.92" waitingTime="0.00" waitingCount="0" stopTime="0.00" timeLoss="10.70" rerouteNo="1" devices="tripinfo_flow_61.0 routing_flow_61.0 emissions_flow_61.0" vType="car" speedFactor="1.02" vaporized="">
        <emissions CO_abs="843.98" CO2_abs="106495.11" HC_abs="5.58" PMx_abs="6.61" NOx_abs="36.99" fuel_abs="34523.85" electricity_abs="0.00"/>
    </tripinfo>
    <tripinfo id="flow_24.0" depart="0.00" departLane="939610874_1" departPos="3.10" departSpeed="0.00" departDelay="0.00" arrival="36.00" arrivalLane="-361256298#1_1" arrivalPos="36.33" arrivalSpeed="10.82" duration="36.00" routeLength="276.95" waitingTime="0.00" waitingCount="0" stopTime="0.00" timeLoss="10.89" rerouteNo="1" devices="tripinfo_flow_24.0 routing_flow_24.0 emissions_flow_24.0" vType="tricycle" speedFactor="1.25" vaporized="">
        <emissions CO_abs="977.93" CO2_abs="61101.42" HC_abs="677.42" PMx_abs="14.02" NOx_abs="69.99" fuel_abs="19812.35" electricity_abs="0.00"/>
    </tripinfo>
    <tripinfo id="flow_55.0" depart="6.00" departLane="140483224#12_1" departPos="4.60" departSpeed="0.00" departDelay="5.00" arrival="38.00" arrivalLane="-361256298#1_2" arrivalPos="36.33" arrivalSpeed="13.41" duration="32.00" routeLength="369.94" waitingTime="0.00" waitingCount="0" stopTime="0.00" timeLoss="18.51" rerouteNo="1" devices="tripinfo_flow_55.0 routing_flow_55.0 emissions_flow_55.0" vType="car" speedFactor="1.15" vaporized="">
        <emissions CO_abs="1588.21" CO2_abs="170849.15" HC_abs="10.51" PMx_abs="10.85" NOx_abs="60.34" fuel_abs="55386.26" electricity_abs="0.00"/>
    </tripinfo>
    <tripinfo id="flow_67.0" depart="3.00" departLane="140483224#12_1" departPos="4.60" departSpeed="0.00" departDelay="3.00" arrival="42.00" arrivalLane="440471861#6_2" arrivalPos="125.31" arrivalSpeed="21.08" duration="39.00" routeLength="483.95" waitingTime="0.00" waitingCount="0" stopTime="0.00" timeLoss="20.76" rerouteNo="1" devices="tripinfo_flow_67.0 routing_flow_67.0 emissions_flow_67.0" vType="car" speedFactor="1.14" vaporized="">
        <emissions CO_abs="2331.53" CO2_abs="228328.76" HC_abs="15.42" PMx_abs="14.99" NOx_abs="83.62" fuel_abs="74020.11" electricity_abs="0.00"/>
    </tripinfo>
    <tripinfo id="flow_55.1" depart="8.00" departLane="140483224#12_1" departPos="4.60" departSpeed="0.00" departDelay="6.00" arrival="43.00" arrivalLane="-361256298#1_2" arrivalPos="36.33" arrivalSpeed="11.44" duration="35.00" routeLength="369.94" waitingTime="0.00" waitingCount="0" stopTime="0.00" timeLoss="18.38" rerouteNo="1" devices="tripinfo_flow_55.1 routing_flow_55.1 emissions_flow_55.1" vType="car" speedFactor="0.95" vaporized="">
        <emissions CO_abs="1337.28" CO2_abs="161446.41" HC_abs="8.85" PMx_abs="10.36" NOx_abs="55.84" fuel_abs="52338.14" electricity_abs="0.00"/>
    </tripinfo>
    <tripinfo id="flow_19.0" depart="4.00" departLane="939610874_1" departPos="4.60" departSpeed="0.00" departDelay="3.00" arrival="46.00" arrivalLane="-361256298#1_1" arrivalPos="36.33" arrivalSpeed="9.82" duration="42.00" routeLength="275.45" waitingTime="0.00" waitingCount="0" stopTime="0.00" timeLoss="12.34" rerouteNo="1" devices="tripinfo_flow_19.0 routing_flow_19.0 emissions_flow_19.0" vType="car" speedFactor="1.04" vaporized="">
        <emissions CO_abs="249.31" CO2_abs="93337.86" HC_abs="1.65" PMx_abs="6.17" NOx_abs="29.64" fuel_abs="30258.78" electricity_abs="0.00"/>
    </tripinfo>
    <tripinfo id="flow_19.1" depart="33.00" departLane="939610874_1" departPos="4.60" departSpeed="0.00" departDelay="29.00" arrival="74.00" arrivalLane="-361256298#1_1" arrivalPos="36.33" arrivalSpeed="13.73" duration="41.00" routeLength="275.45" waitingTime="0.00" waitingCount="0" stopTime="0.00" timeLoss="9.85" rerouteNo="1" devices="tripinfo_flow_19.1 routing_flow_19.1 emissions_flow_19.1" vType="car" speedFactor="1.00" vaporized="">
        <emissions CO_abs="393.86" CO2_abs="100519.77" HC_abs="2.60" PMx_abs="6.03" NOx_abs="31.51" fuel_abs="32586.91" electricity_abs="0.00"/>
    </tripinfo>
    <tripinfo id="flow_6.0" depart="0.00" departLane="-361256298#1_1" departPos="3.10" departSpeed="0.00" departDelay="0.00" arrival="76.00" arrivalLane="939610874_1" arrivalPos="50.72" arrivalSpeed="7.51" duration="76.00" routeLength="319.24" waitingTime="40.00" waitingCount="1" stopTime="0.00" timeLoss="50.62" rerouteNo="1" devices="tripinfo_flow_6.0 routing_flow_6.0 emissions_flow_6.0" vType="tricycle" speedFactor="0.96" vaporized="">
        <emissions CO_abs="3459.74" CO2_abs="135845.90" HC_abs="1788.32" PMx_abs="35.50" NOx_abs="147.92" fuel_abs="44049.01" electricity_abs="0.00"/>
    </tripinfo>
    <tripinfo id="flow_7.0" depart="2.00" departLane="-361256298#1_1" departPos="4.60" departSpeed="0.00" departDelay="2.00" arrival="76.00" arrivalLane="440471861#6_1" arrivalPos="125.31" arrivalSpeed="15.10" duration="74.00" routeLength="520.59" waitingTime="17.00" waitingCount="3" stopTime="0.00" timeLoss="53.28" rerouteNo="1" devices="tripinfo_flow_7.0 routing_flow_7.0 emissions_flow_7.0" vType="car" speedFactor="0.95" vaporized="">
        <emissions CO_abs="2095.99" CO2_abs="287135.86" HC_abs="13.87" PMx_abs="15.68" NOx_abs="100.50" fuel_abs="93084.68" electricity_abs="0.00"/>
    </tripinfo>
    <tripinfo id="flow_1.0" depart="22.00" departLane="-361256298#1_1" departPos="4.60" departSpeed="0.00" departDelay="18.00" arrival="78.00" arrivalLane="939610874_1" arrivalPos="50.72" arrivalSpeed="9.10" duration="56.00" routeLength="317.74" waitingTime="15.00" waitingCount="1" stopTime="0.00" timeLoss="33.86" rerouteNo="1" devices="tripinfo_flow_1.0 routing_flow_1.0 emissions_flow_1.0" vType="car" speedFactor="1.10" vaporized="">
        <emissions CO_abs="582.57" CO2_abs="146315.04" HC_abs="3.85" PMx_abs="7.35" NOx_abs="48.06" fuel_abs="47433.18" electricity_abs="0.00"/>
    </tripinfo>
    <tripinfo id="flow_56.0" depart="12.00" departLane="140483224#12_1" departPos="7.10" departSpeed="0.00" departDelay="10.00" arrival="80.00" arrivalLane="-361256298#1_2" arrivalPos="36.33" arrivalSpeed="8.91" duration="68.00" routeLength="367.44" waitingTime="16.00" waitingCount="1" stopTime="0.00" timeLoss="52.45" rerouteNo="1" devices="tripinfo_flow_56.0 routing_flow_56.0 emissions_flow_56.0" vType="jeep" speedFactor="1.00" vaporized="">
        <emissions CO_abs="197.38" CO2_abs="896034.05" HC_abs="14.90" PMx_abs="97.29" NOx_abs="317.10" fuel_abs="287960.25" electricity_abs="0.00"/>
    </tripinfo>
    <tripinfo id="flow_19.2" depart="40.00" departLane="939610874_1" departPos="4.60" departSpeed="0.00" departDelay="35.00" arrival="86.00" arrivalLane="-361256298#1_1" arrivalPos="36.33" arrivalSpeed="12.61" duration="46.00" routeLength="275.45" waitingTime="1.00" waitingCount="1" stopTime="0.00" timeLoss="11.67" rerouteNo="1" devices="tripinfo_flow_19.2 routing_flow_19.2 emissions_flow_19.2" vType="car" speedFactor="0.91" vaporized="">
        <emissions CO_abs="303.96" CO2_abs="105441.49" HC_abs="2.01" PMx_abs="6.30" NOx_abs="33.62" fuel_abs="34182.49" electricity_abs="0.00"/>
    </tripinfo>
    <tripinfo id="flow_8.0" depart="5.00" departLane="-361256298#1_1" departPos="7.10" departSpeed="0.00" departDelay="4.00" arrival="90.00" arrivalLane="440471861#6_1" arrivalPos="125.31" arrivalSpeed="8.62" duration="85.00" routeLength="518.09" waitingTime="14.00" waitingCount="2" stopTime="0.00" timeLoss="65.47" rerouteNo="1" devices="tripinfo_flow_8.0 routing_flow_8.0 emissions_flow_8.0" vType="jeep" speedFactor="1.00" vaporized="">
        <emissions CO_abs="249.66" CO2_abs="1187668.41" HC_abs="19.42" PMx_abs="123.47" NOx_abs="408.62" fuel_abs="381683.13" electricity_abs="0.00"/>
    </tripinfo>
    <tripinfo id="flow_7.1" depart="9.00" departLane="-361256298#1_1" departPos="4.60" departSpeed="0.00" departDelay="7.00" arrival="92.00" arrivalLane="440471861#6_1" arrivalPos="125.31" arrivalSpeed="11.11" duration="83.00" routeLength="520.59" waitingTime="7.00" waitingCount="2" stopTime="0.00" timeLoss="65.09" rerouteNo="1" devices="tripinfo_flow_7.1 routing_flow_7.1 emissions_flow_7.1" vType="car" speedFactor="1.11" vaporized="">
        <emissions CO_abs="1052.39" CO2_abs="221092.52" HC_abs="6.97" PMx_abs="12.77" NOx_abs="73.65" fuel_abs="71674.77" electricity_abs="0.00"/>
    </tripinfo>
    <tripinfo id="flow_31.0" depart="9.00" departLane="939610874_1" departPos="4.60" departSpeed="0.00" departDelay="8.00" arrival="98.00" arrivalLane="140483224#12_2" arrivalPos="63.66" arrivalSpeed="22.23" duration="89.00" routeLength="521.05" waitingTime="28.00" waitingCount="2" stopTime="0.00" timeLoss="49.06" rerouteNo="1" devices="tripinfo_flow_31.0 routing_flow_31.0 emissions_flow_31.0" vType="car" speedFactor="0.91" vaporized="">
        <emissions CO_abs="2077.12" CO2_abs="289016.51" HC_abs="13.74" PMx_abs="15.66" NOx_abs="105.17" fuel_abs="93694.68" electricity_abs="0.00"/>
    </tripinfo>
    <tripinfo id="flow_19.3" depart="60.00" departLane="939610874_1" departPos="4.60" departSpeed="0.00" departDelay="54.00" arrival="106.00" arrivalLane="-361256298#1_1" arrivalPos="36.33" arrivalSpeed="11.96" duration="46.00" routeLength="275.45" waitingTime="0.00" waitingCount="0" stopTime="0.00" timeLoss="11.08" rerouteNo="1" devices="tripinfo_flow_19.3 routing_flow_19.3 emissions_flow_19.3" vType="car" speedFactor="0.88" vaporized="">
        <emissions CO_abs="260.75" CO2_abs="97353.10" HC_abs="1.72" PMx_abs="5.83" NOx_abs="30.81" fuel_abs="31560.42" electricity_abs="0.00"/>
    </tripinfo>
    <tripinfo id="flow_34.0" depart="26.00" departLane="939610874_1" departPos="8.10" departSpeed="0.00" departDelay="24.00" arrival="110.00" arrivalLane="140483224#12_2" arrivalPos="63.66" arrivalSpeed="14.53" duration="84.00" routeLength="517.55" waitingTime="20.00" waitingCount="1" stopTime="0.00" timeLoss="49.41" rerouteNo="1" devices="tripinfo_flow_34.0 routing_flow_34.0 emissions_flow_34.0" vType="truck" speedFactor="1.01" vaporized="">
        <emissions CO_abs="135.31" CO2_abs="482448.65" HC_abs="10.65" PMx_abs="120.10" NOx_abs="153.86" fuel_abs="155043.68" electricity_abs="0.00"/>
    </tripinfo>
    <tripinfo id="flow_20.0" depart="64.00" departLane="939610874_1" departPos="7.10" departSpeed="0.00" departDelay="58.00" arrival="110.00" arrivalLane="-361256298#1_1" arrivalPos="36.33" arrivalSpeed="9.79" duration="46.00" routeLength="272.95" waitingTime="0.00" waitingCount="0" stopTime="0.00" timeLoss="15.00" rerouteNo="1" devices="tripinfo_flow_20.0 routing_flow_20.0 emissions_flow_20.0" vType="jeep" speedFactor="1.00" vaporized="">
        <emissions CO_abs="107.89" CO2_abs="489996.89" HC_abs="7.68" PMx_abs="47.83" NOx_abs="151.52" fuel_abs="157470.50" electricity_abs="0.00"/>
    </tripinfo>
    <tripinfo id="flow_22.0" depart="74.00" departLane="939610874_1" departPos="8.10" departSpeed="0.00" departDelay="68.00" arrival="114.00" arrivalLane="-361256298#1_1" arrivalPos="36.33" arrivalSpeed="9.21" duration="40.00" routeLength="271.95" waitingTime="0.00" waitingCount="0" stopTime="0.00" timeLoss="9.61" rerouteNo="1" devices="tripinfo_flow_22.0 routing_flow_22.0 emissions_flow_22.0" vType="truck" speedFactor="1.00" vaporized="">
        <emissions CO_abs="52.63" CO2_abs="144905.81" HC_abs="3.68" PMx_abs="46.83" NOx_abs="58.13" fuel_abs="46567.91" electricity_abs="0.00"/>
    </tripinfo>
    <tripinfo id="flow_7.2" depart="12.00" departLane="-361256298#1_1" departPos="4.60" departSpeed="0.00" departDelay="9.00" arrival="118.00" arrivalLane="440471861#6_1" arrivalPos="125.31" arrivalSpeed="8.60" duration="106.00" routeLength="520.59" waitingTime="17.00" waitingCount="4" stopTime="0.00" timeLoss="86.67" rerouteNo="1" devices="tripinfo_flow_7.2 routing_flow_7.2 emissions_flow_7.2" vType="car" speedFactor="1.05" vaporized="">
        <emissions CO_abs="1032.34" CO2_abs="262548.37" HC_abs="6.83" PMx_abs="13.17" NOx_abs="88.21" fuel_abs="85114.26" electricity_abs="0.00"/>
    </tripinfo>
    <tripinfo id="flow_22.1" depart="81.00" departLane="939610874_1" departPos="8.10" departSpeed="0.00" departDelay="74.00" arrival="122.00" arrivalLane="-361256298#1_1" arrivalPos="36.33" arrivalSpeed="9.68" duration="41.00" routeLength="271.95" waitingTime="0.00" waitingCount="0" stopTime="0.00" timeLoss="11.70" rerouteNo="1" devices="tripinfo_flow_22.1 routing_flow_22.1 emissions_flow_22.1" vType="truck" speedFactor="1.04" vaporized="">
        <emissions CO_abs="60.26" CO2_abs="168896.37" HC_abs="4.17" PMx_abs="51.69" NOx_abs="64.59" fuel_abs="54277.61" electricity_abs="0.00"/>
    </tripinfo>
    <tripinfo id="flow_8.1" depart="15.00" departLane="-361256298#1_1" departPos="7.10" departSpeed="0.00" departDelay="12.00" arrival="123.00" arrivalLane="440471861#6_1" arrivalPos="125.31" arrivalSpeed="8.28" duration="108.00" routeLength="518.09" waitingTime="25.00" waitingCount="2" stopTime="0.00" timeLoss="88.45" rerouteNo="1" devices="tripinfo_flow_8.1 routing_flow_8.1 emissions_flow_8.1" vType="jeep" speedFactor="1.00" vaporized="">
        <emissions CO_abs="307.28" CO2_abs="1289666.67" HC_abs="22.57" PMx_abs="157.96" NOx_abs="509.72" fuel_abs="414462.03" electricity_abs="0.00"/>
    </tripinfo>
    <tripinfo id="flow_48.0" depart="8.00" departLane="440471861#6_1" departPos="3.10" departSpeed="0.00" departDelay="7.00" arrival="130.00" arrivalLane="939610874_1" arrivalPos="50.72" arrivalSpeed="7.57" duration="122.00" routeLength="341.74" waitingTime="76.00" waitingCount="1" stopTime="0.00" timeLoss="96.28" rerouteNo="1" devices="tripinfo_flow_48.0 routing_flow_48.0 emissions_flow_48.0" vType="tricycle" speedFactor="0.94" vaporized="">
        <emissions CO_abs="2775.64" CO2_abs="192510.83" HC_abs="2687.95" PMx_abs="54.53" NOx_abs="165.79" fuel_abs="62423.67" electricity_abs="0.00"/>
    </tripinfo>
    <tripinfo id="flow_30.0" depart="7.00" departLane="939610874_1" departPos="3.10" departSpeed="0.00" departDelay="6.00" arrival="131.00" arrivalLane="440471861#6_1" arrivalPos="125.31" arrivalSpeed="11.51" duration="124.00" routeLength="522.15" waitingTime="39.00" waitingCount="5" stopTime="0.00" timeLoss="88.01" rerouteNo="1" devices="tripinfo_flow_30.0 routing_flow_30.0 emissions_flow_30.0" vType="tricycle" speedFactor="1.03" vaporized="">
        <emissions CO_abs="3900.44" CO2_abs="212857.30" HC_abs="2713.32" PMx_abs="54.92" NOx_abs="218.46" fuel_abs="69020.48" electricity_abs="0.00"/>
    </tripinfo>
    <tripinfo id="flow_35.0" depart="38.00" departLane="939610874_1" departPos="2.10" departSpeed="0.00" departDelay="34.00" arrival="131.00" arrivalLane="140483224#12_2" arrivalPos="63.66" arrivalSpeed="22.74" duration="93.00" routeLength="523.55" waitingTime="31.00" waitingCount="2" stopTime="0.00" timeLoss="56.43" rerouteNo="1" devices="tripinfo_flow_35.0 routing_flow_35.0 emissions_flow_35.0" vType="motorcycle" speedFactor="1.01" vaporized="">
        <emissions CO_abs="8177.73" CO2_abs="195957.84" HC_abs="2346.65" PMx_abs="42.83" NOx_abs="303.98" fuel_abs="63539.25" electricity_abs="0.00"/>
    </tripinfo>
    <tripinfo id="flow_47.0" depart="10.00" departLane="440471861#6_1" departPos="2.10" departSpeed="0.00" departDelay="7.00" arrival="133.00" arrivalLane="939610874_1" arrivalPos="50.72" arrivalSpeed="6.08" duration="123.00" routeLength="342.74" waitingTime="72.00" waitingCount="1" stopTime="0.00" timeLoss="95.42" rerouteNo="1" devices="tripinfo_flow_47.0 routing_flow_47.0 emissions_flow_47.0" vType="motorcycle" speedFactor="0.89" vaporized="">
        <emissions CO_abs="2549.78" CO2_abs="193839.46" HC_abs="2675.41" PMx_abs="54.14" NOx_abs="171.25" fuel_abs="62854.40" electricity_abs="0.00"/>
    </tripinfo>
    <tripinfo id="flow_25.0" depart="2.00" departLane="939610874_1" departPos="4.60" departSpeed="0.00" departDelay="2.00" arrival="134.00" arrivalLane="440471861#6_1" arrivalPos="125.31" arrivalSpeed="17.18" duration="132.00" routeLength="520.65" waitingTime="49.00" waitingCount="4" stopTime="0.00" timeLoss="95.76" rerouteNo="1" devices="tripinfo_flow_25.0 routing_flow_25.0 emissions_flow_25.0" vType="car" speedFactor="1.01" vaporized="">
        <emissions CO_abs="1501.48" CO2_abs="326078.15" HC_abs="9.93" PMx_abs="14.01" NOx_abs="114.90" fuel_abs="105709.94" electricity_abs="0.00"/>
    </tripinfo>
    <tripinfo id="flow_40.0" depart="0.00" departLane="440471861#6_1" departPos="8.10" departSpeed="0.00" departDelay="0.00" arrival="137.00" arrivalLane="-361256298#1_1" arrivalPos="36.33" arrivalSpeed="4.84" duration="137.00" routeLength="428.28" waitingTime="81.00" waitingCount="2" stopTime="0.00" timeLoss="121.08" rerouteNo="1" devices="tripinfo_flow_40.0 routing_flow_40.0 emissions_flow_40.0" vType="truck" speedFactor="1.03" vaporized="">
        <emissions CO_abs="185.53" CO2_abs="530468.84" HC_abs="14.51" PMx_abs="196.74" NOx_abs="132.75" fuel_abs="170471.16" electricity_abs="0.00"/>
    </tripinfo>
    <tripinfo id="flow_43.0" depart="33.00" departLane="440471861#6_1" departPos="4.60" departSpeed="0.00" departDelay="27.00" arrival="142.00" arrivalLane="939610874_1" arrivalPos="50.72" arrivalSpeed="7.37" duration="109.00" routeLength="340.24" waitingTime="54.00" waitingCount="1" stopTime="0.00" timeLoss="82.95" rerouteNo="1" devices="tripinfo_flow_43.0 routing_flow_43.0 emissions_flow_43.0" vType="car" speedFactor="0.94" vaporized="">
        <emissions CO_abs="506.49" CO2_abs="221057.91" HC_abs="3.34" PMx_abs="7.66" NOx_abs="76.45" fuel_abs="71664.34" electricity_abs="0.00"/>
    </tripinfo>
    <tripinfo id="flow_52.0" depart="21.00" departLane="440471861#6_1" departPos="8.10" departSpeed="0.00" departDelay="16.00" arrival="145.00" arrivalLane="140483224#12_2" arrivalPos="63.66" arrivalSpeed="16.30" duration="124.00" routeLength="509.15" waitingTime="59.00" waitingCount="2" stopTime="0.00" timeLoss="104.32" rerouteNo="1" devices="tripinfo_flow_52.0 routing_flow_52.0 emissions_flow_52.0" vType="truck" speedFactor="1.06" vaporized="">
        <emissions CO_abs="189.36" CO2_abs="612642.92" HC_abs="14.77" PMx_abs="181.23" NOx_abs="168.95" fuel_abs="196881.03" electricity_abs="0.00"/>
    </tripinfo>
    <tripinfo id="flow_28.0" depart="19.00" departLane="939610874_1" departPos="8.10" departSpeed="0.00" departDelay="17.00" arrival="146.00" arrivalLane="440471861#6_1" arrivalPos="125.31" arrivalSpeed="13.57" duration="127.00" routeLength="517.15" waitingTime="36.00" waitingCount="5" stopTime="0.00" timeLoss="92.29" rerouteNo="1" devices="tripinfo_flow_28.0 routing_flow_28.0 emissions_flow_28.0" vType="truck" speedFactor="1.03" vaporized="">
        <emissions CO_abs="184.49" CO2_abs="522941.21" HC_abs="13.60" PMx_abs="177.49" NOx_abs="152.12" fuel_abs="168053.23" electricity_abs="0.00"/>
    </tripinfo>
    <tripinfo id="flow_43.1" depart="38.00" departLane="440471861#6_1" departPos="4.60" departSpeed="0.00" departDelay="30.00" arrival="147.00" arrivalLane="939610874_1" arrivalPos="50.72" arrivalSpeed="6.85" duration="109.00" routeLength="340.24" waitingTime="54.00" waitingCount="2" stopTime="0.00" timeLoss="86.58" rerouteNo="1" devices="tripinfo_flow_43.1 routing_flow_43.1 emissions_flow_43.1" vType="car" speedFactor="1.09" vaporized="">
        <emissions CO_abs="568.12" CO2_abs="230434.63" HC_abs="3.75" PMx_abs="7.64" NOx_abs="79.16" fuel_abs="74704.04" electricity_abs="0.00"/>
    </tripinfo>
    <tripinfo id="flow_49.0" depart="55.00" departLane="440471861#6_1" departPos="4.60" departSpeed="0.00" departDelay="46.00" arrival="147.00" arrivalLane="140483224#12_2" arrivalPos="63.66" arrivalSpeed="21.59" duration="92.00" routeLength="512.65" waitingTime="28.00" waitingCount="1" stopTime="0.00" timeLoss="71.02" rerouteNo="1" devices="tripinfo_flow_49.0 routing_flow_49.0 emissions_flow_49.0" vType="car" speedFactor="0.99" vaporized="">
        <emissions CO_abs="1964.06" CO2_abs="305300.30" HC_abs="12.98" PMx_abs="15.46" NOx_abs="107.63" fuel_abs="98973.65" electricity_abs="0.00"/>
    </tripinfo>
    <tripinfo id="flow_29.0" depart="30.00" departLane="939610874_1" departPos="2.10" departSpeed="0.00" departDelay="27.00" arrival="148.00" arrivalLane="440471861#6_1" arrivalPos="125.31" arrivalSpeed="17.81" duration="118.00" routeLength="523.15" waitingTime="33.00" waitingCount="5" stopTime="0.00" timeLoss="85.45" rerouteNo="1" devices="tripinfo_flow_29.0 routing_flow_29.0 emissions_flow_29.0" vType="motorcycle" speedFactor="1.13" vaporized="">
        <emissions CO_abs="4071.78" CO2_abs="206785.03" HC_abs="2626.48" PMx_abs="51.46" NOx_abs="226.65" fuel_abs="67051.05" electricity_abs="0.00"/>
    </tripinfo>
    <tripinfo id="flow_54.1" depart="58.00" departLane="440471861#6_1" departPos="3.10" departSpeed="0.00" departDelay="48.00" arrival="148.00" arrivalLane="140483224#12_2" arrivalPos="63.66" arrivalSpeed="22.60" duration="90.00" routeLength="514.15" waitingTime="29.00" waitingCount="1" stopTime="0.00" timeLoss="66.88" rerouteNo="1" devices="tripinfo_flow_54.1 routing_flow_54.1 emissions_flow_54.1" vType="tricycle" speedFactor="0.91" vaporized="">
        <emissions CO_abs="5567.40" CO2_abs="178607.81" HC_abs="2167.14" PMx_abs="41.46" NOx_abs="243.14" fuel_abs="57914.06" electricity_abs="0.00"/>
    </tripinfo>
    <tripinfo id="flow_54.0" depart="41.00" departLane="440471861#6_1" departPos="3.10" departSpeed="0.00" departDelay="33.00" arrival="152.00" arrivalLane="140483224#12_2" arrivalPos="63.66" arrivalSpeed="26.33" duration="111.00" routeLength="514.15" waitingTime="46.00" waitingCount="1" stopTime="0.00" timeLoss="88.73" rerouteNo="1" devices="tripinfo_flow_54.0 routing_flow_54.0 emissions_flow_54.0" vType="tricycle" speedFactor="0.97" vaporized="">
        <emissions CO_abs="7638.91" CO2_abs="228127.52" HC_abs="2800.78" PMx_abs="53.18" NOx_abs="312.35" fuel_abs="73970.93" electricity_abs="0.00"/>
    </tripinfo>
    <tripinfo id="flow_53.0" depart="66.00" departLane="440471861#6_1" departPos="2.10" departSpeed="0.00" departDelay="54.00" arrival="155.00" arrivalLane="140483224#12_2" arrivalPos="63.66" arrivalSpeed="26.33" duration="89.00" routeLength="515.15" waitingTime="24.00" waitingCount="2" stopTime="0.00" timeLoss="68.58" rerouteNo="1" devices="tripinfo_flow_53.0 routing_flow_53.0 emissions_flow_53.0" vType="motorcycle" speedFactor="1.05" vaporized="">
        <emissions CO_abs="7126.89" CO2_abs="193743.29" HC_abs="2298.43" PMx_abs="42.44" NOx_abs="288.17" fuel_abs="62821.28" electricity_abs="0.00"/>
    </tripinfo>
    <tripinfo id="flow_29.1" depart="35.00" departLane="939610874_1" departPos="2.10" departSpeed="0.00" departDelay="31.00" arrival="158.00" arrivalLane="440471861#6_1" arrivalPos="125.31" arrivalSpeed="9.70" duration="123.00" routeLength="523.15" waitingTime="26.00" waitingCount="4" stopTime="0.00" timeLoss="86.57" rerouteNo="1" devices="tripinfo_flow_29.1 routing_flow_29.1 emissions_flow_29.1" vType="motorcycle" speedFactor="1.01" vaporized="">
        <emissions CO_abs="4687.35" CO2_abs="209486.00" HC_abs="2573.67" PMx_abs="51.22" NOx_abs="234.57" fuel_abs="67926.71" electricity_abs="0.00"/>
    </tripinfo>
    <tripinfo id="flow_62.0" depart="29.00" departLane="140483224#12_1" departPos="7.10" departSpeed="0.00" departDelay="26.00" arrival="160.00" arrivalLane="939610874_1" arrivalPos="50.72" arrivalSpeed="4.13" duration="131.00" routeLength="291.42" waitingTime="79.00" waitingCount="2" stopTime="0.00" timeLoss="108.84" rerouteNo="1" devices="tripinfo_flow_62.0 routing_flow_62.0 emissions_flow_62.0" vType="jeep" speedFactor="1.00" vaporized="">
        <emissions CO_abs="303.05" CO2_abs="807307.63" HC_abs="19.65" PMx_abs="180.87" NOx_abs="540.94" fuel_abs="259444.04" electricity_abs="0.00"/>
    </tripinfo>
    <tripinfo id="flow_31.1" depart="52.00" departLane="939610874_1" departPos="4.60" departSpeed="0.00" departDelay="47.00" arrival="161.00" arrivalLane="140483224#12_2" arrivalPos="63.66" arrivalSpeed="22.10" duration="109.00" routeLength="521.05" waitingTime="19.00" waitingCount="3" stopTime="0.00" timeLoss="66.65" rerouteNo="1" devices="tripinfo_flow_31.1 routing_flow_31.1 emissions_flow_31.1" vType="car" speedFactor="0.87" vaporized="">
        <emissions CO_abs="1364.69" CO2_abs="277681.83" HC_abs="9.02" PMx_abs="13.50" NOx_abs="93.37" fuel_abs="90019.95" electricity_abs="0.00"/>
    </tripinfo>
    <tripinfo id="flow_51.0" depart="16.00" departLane="440471861#6_1" departPos="12.10" departSpeed="0.00" departDelay="11.00" arrival="166.00" arrivalLane="140483224#12_2" arrivalPos="63.66" arrivalSpeed="14.53" duration="150.00" routeLength="505.15" waitingTime="68.00" waitingCount="3" stopTime="0.00" timeLoss="129.84" rerouteNo="1" devices="tripinfo_flow_51.0 routing_flow_51.0 emissions_flow_51.0" vType="bus" speedFactor="1.00" vaporized="">
        <emissions CO_abs="378.22" CO2_abs="1344274.11" HC_abs="26.90" PMx_abs="212.56" NOx_abs="664.26" fuel_abs="432011.14" electricity_abs="0.00"/>
    </tripinfo>
    <tripinfo id="flow_26.0" depart="13.00" departLane="939610874_1" departPos="7.10" departSpeed="0.00" departDelay="11.00" arrival="167.00" arrivalLane="440471861#6_1" arrivalPos="125.31" arrivalSpeed="8.36" duration="154.00" routeLength="518.15" waitingTime="46.00" waitingCount="6" stopTime="0.00" timeLoss="118.43" rerouteNo="1" devices="tripinfo_flow_26.0 routing_flow_26.0 emissions_flow_26.0" vType="jeep" speedFactor="1.00" vaporized="">
        <emissions CO_abs="374.10" CO2_abs="1261015.63" HC_abs="25.58" PMx_abs="202.76" NOx_abs="626.82" fuel_abs="405252.71" electricity_abs="0.00"/>
    </tripinfo>
    <tripinfo id="flow_25.1" depart="43.00" departLane="939610874_1" departPos="4.60" departSpeed="0.00" departDelay="38.00" arrival="169.00" arrivalLane="440471861#6_1" arrivalPos="125.31" arrivalSpeed="11.36" duration="126.00" routeLength="520.65" waitingTime="22.00" waitingCount="4" stopTime="0.00" timeLoss="83.82" rerouteNo="1" devices="tripinfo_flow_25.1 routing_flow_25.1 emissions_flow_25.1" vType="car" speedFactor="0.86" vaporized="">
        <emissions CO_abs="1034.81" CO2_abs="275140.90" HC_abs="6.85" PMx_abs="12.40" NOx_abs="93.31" fuel_abs="89196.70" electricity_abs="0.00"/>
    </tripinfo>
    <tripinfo id="flow_52.1" depart="69.00" departLane="440471861#6_1" departPos="8.10" departSpeed="0.00" departDelay="56.00" arrival="172.00" arrivalLane="140483224#12_2" arrivalPos="63.66" arrivalSpeed="14.88" duration="103.00" routeLength="509.15" waitingTime="11.00" waitingCount="2" stopTime="0.00" timeLoss="82.51" rerouteNo="1" devices="tripinfo_flow_52.1 routing_flow_52.1 emissions_flow_52.1" vType="truck" speedFactor="1.00" vaporized="">
        <emissions CO_abs="164.27" CO2_abs="461893.24" HC_abs="11.13" PMx_abs="134.72" NOx_abs="142.60" fuel_abs="148435.27" electricity_abs="0.00"/>
    </tripinfo>
    <tripinfo id="flow_72.0" depart="21.00" departLane="140483224#12_1" departPos="3.10" departSpeed="0.00" departDelay="19.00" arrival="176.00" arrivalLane="440471861#6_1" arrivalPos="125.31" arrivalSpeed="13.00" duration="155.00" routeLength="485.45" waitingTime="89.00" waitingCount="3" stopTime="0.00" timeLoss="133.96" rerouteNo="1" devices="tripinfo_flow_72.0 routing_flow_72.0 emissions_flow_72.0" vType="tricycle" speedFactor="0.98" vaporized="">
        <emissions CO_abs="4077.37" CO2_abs="258676.16" HC_abs="3512.58" PMx_abs="70.77" NOx_abs="244.74" fuel_abs="83878.12" electricity_abs="0.00"/>
    </tripinfo>