<?xml version="1.0" encoding="UTF-8"?>

<!-- generated on 2025-11-03 14:13:55 by Eclipse SUMO GUI Version 1.24.0
<sumoConfiguration xmlns:xsi="http://www.w3.org/2001/XMLSchema-instance" xsi:noNamespaceSchemaLocation="http://sumo.dlr.de/xsd/sumoConfiguration.xsd">

    <input>
        <net-file value="network/map.net.xml"/>
        <route-files value="demand/flows_edge_based_filtered.flows.xml"/>
        <additional-files value="additionals/map.poly.xml,additionals/detectors.add.xml"/>
    </input>

    <output>
        <summary-output value="output/summary.xml"/>
        <tripinfo-output value="output/tripinfo.xml"/>
        <statistic-output value="output/statistics.xml"/>
    </output>

    <time>
        <begin value="0"/>
        <end value="18000"/>
        <step-length value="1"/>
    </time>

    <processing>
        <ignore-route-errors value="true"/>
        <ignore-accidents value="false"/>
        <max-depart-delay value="900"/>
        <time-to-impatience value="300"/>
    </processing>

    <routing>
        <device.rerouting.adaptation-steps value="18"/>
        <device.rerouting.adaptation-interval value="10"/>
        <device.rerouting.with-taz value="false"/>
    </routing>

    <report>
        <verbose value="true"/>
        <duration-log.statistics value="true"/>
        <no-step-log value="false"/>
    </report>

</sumoConfiguration>
-->

<tripinfos xmlns:xsi="http://www.w3.org/2001/XMLSchema-instance" xsi:noNamespaceSchemaLocation="http://sumo.dlr.de/xsd/tripinfo_file.xsd">
    <tripinfo id="flow_133.0" depart="0.00" departLane="-140483178#3_0" departPos="5.10" departSpeed="19.69" departDelay="0.00" arrival="5.00" arrivalLane="-140483178#3_0" arrivalPos="94.36" arrivalSpeed="18.62" duration="5.00" routeLength="89.26" waitingTime="0.00" waitingCount="0" stopTime="0.00" timeLoss="0.22" rerouteNo="1" devices="tripinfo_flow_133.0 routing_flow_133.0" vType="DEFAULT_VEHTYPE" speedFactor="0.89" vaporized=""/>
    <tripinfo id="flow_1235.0" depart="0.00" departLane="-361256298#2_1" departPos="5.10" departSpeed="24.51" departDelay="0.00" arrival="6.00" arrivalLane="-361256298#1_1" arrivalPos="36.33" arrivalSpeed="14.35" duration="6.00" routeLength="120.12" waitingTime="0.00" waitingCount="0" stopTime="0.00" timeLoss="0.81" rerouteNo="0" devices="tripinfo_flow_1235.0 routing_flow_1235.0" vType="DEFAULT_VEHTYPE" speedFactor="0.88" vaporized=""/>
    <tripinfo id="flow_8113.0" depart="0.00" departLane="-793339796#0_1" departPos="5.10" departSpeed="29.09" departDelay="0.00" arrival="6.00" arrivalLane="-361256298#2_1" arrivalPos="64.33" arrivalSpeed="28.26" duration="6.00" routeLength="163.86" waitingTime="0.00" waitingCount="0" stopTime="0.00" timeLoss="0.19" rerouteNo="1" devices="tripinfo_flow_8113.0 routing_flow_8113.0" vType="DEFAULT_VEHTYPE" speedFactor="1.05" vaporized=""/>
    <tripinfo id="flow_6251.0" depart="0.00" departLane="140483224#6_2" departPos="5.10" departSpeed="24.97" departDelay="0.00" arrival="9.00" arrivalLane="140483224#12_2" arrivalPos="63.66" arrivalSpeed="24.09" duration="9.00" routeLength="209.53" waitingTime="0.00" waitingCount="0" stopTime="0.00" timeLoss="0.20" rerouteNo="1" devices="tripinfo_flow_6251.0 routing_flow_6251.0" vType="DEFAULT_VEHTYPE" speedFactor="0.90" vaporized=""/>
    <tripinfo id="flow_10222.0" depart="0.00" departLane="140483224#1_2" departPos="5.10" departSpeed="25.89" departDelay="0.00" arrival="13.00" arrivalLane="140483224#8_2" arrivalPos="7.00" arrivalSpeed="25.04" duration="13.00" routeLength="311.23" waitingTime="0.00" waitingCount="0" stopTime="0.00" timeLoss="0.33" rerouteNo="1" devices="tripinfo_flow_10222.0 routing_flow_10222.0" vType="DEFAULT_VEHTYPE" speedFactor="0.93" vaporized=""/>
    <tripinfo id="flow_11913.0" depart="10.00" departLane="-361256298#2_1" departPos="5.10" departSpeed="13.70" departDelay="10.00" arrival="15.00" arrivalLane="-361256298#2_1" arrivalPos="64.33" arrivalSpeed="13.12" duration="5.00" routeLength="59.23" waitingTime="0.00" waitingCount="0" stopTime="0.00" timeLoss="2.60" rerouteNo="1" devices="tripinfo_flow_11913.0 routing_flow_11913.0" vType="DEFAULT_VEHTYPE" speedFactor="0.90" vaporized=""/>
    <tripinfo id="flow_8398.0" depart="1.00" departLane="-793339796#0_1" departPos="5.10" departSpeed="28.00" departDelay="1.00" arrival="16.00" arrivalLane="-361256298#0_1" arrivalPos="47.11" arrivalSpeed="19.22" duration="15.00" routeLength="279.80" waitingTime="0.00" waitingCount="0" stopTime="0.00" timeLoss="5.30" rerouteNo="1" devices="tripinfo_flow_8398.0 routing_flow_8398.0" vType="DEFAULT_VEHTYPE" speedFactor="1.11" vaporized=""/>
    <tripinfo id="flow_2622.0" depart="8.00" departLane="-361256298#2_1" departPos="5.10" departSpeed="18.61" departDelay="8.00" arrival="17.00" arrivalLane="-361256298#1_1" arrivalPos="36.33" arrivalSpeed="12.39" duration="9.00" routeLength="120.12" waitingTime="0.00" waitingCount="0" stopTime="0.00" timeLoss="4.54" rerouteNo="0" devices="tripinfo_flow_2622.0 routing_flow_2622.0" vType="DEFAULT_VEHTYPE" speedFactor="1.00" vaporized=""/>
    <tripinfo id="flow_5738.0" depart="0.00" departLane="-114920912_0" departPos="5.10" departSpeed="18.84" departDelay="0.00" arrival="22.00" arrivalLane="361256298#3_2" arrivalPos="23.05" arrivalSpeed="17.91" duration="22.00" routeLength="169.37" waitingTime="0.00" waitingCount="0" stopTime="0.00" timeLoss="13.49" rerouteNo="1" devices="tripinfo_flow_5738.0 routing_flow_5738.0" vType="DEFAULT_VEHTYPE" speedFactor="0.98" vaporized=""/>
    <tripinfo id="flow_12141.0" depart="11.00" departLane="-361256298#2_1" departPos="5.10" departSpeed="10.56" departDelay="11.00" arrival="25.00" arrivalLane="-361256298#0_1" arrivalPos="47.11" arrivalSpeed="14.63" duration="14.00" routeLength="175.17" waitingTime="0.00" waitingCount="0" stopTime="0.00" timeLoss="7.19" rerouteNo="1" devices="tripinfo_flow_12141.0 routing_flow_12141.0" vType="DEFAULT_VEHTYPE" speedFactor="0.98" vaporized=""/>
    <tripinfo id="flow_8303.0" depart="0.00" departLane="-793339796#0_2" departPos="5.10" departSpeed="28.87" departDelay="0.00" arrival="28.00" arrivalLane="-361256298#1_1" arrivalPos="36.33" arrivalSpeed="6.94" duration="28.00" routeLength="224.75" waitingTime="7.00" waitingCount="1" stopTime="0.00" timeLoss="20.19" rerouteNo="1" devices="tripinfo_flow_8303.0 routing_flow_8303.0" vType="DEFAULT_VEHTYPE" speedFactor="1.04" vaporized=""/>
    <tripinfo id="flow_2090.0" depart="0.00" departLane="-140483224#12_1" departPos="5.10" departSpeed="25.77" departDelay="0.00" arrival="35.00" arrivalLane="-93590611#1_1" arrivalPos="106.63" arrivalSpeed="12.61" duration="35.00" routeLength="596.51" waitingTime="0.00" waitingCount="0" stopTime="0.00" timeLoss="4.92" rerouteNo="1" devices="tripinfo_flow_2090.0 routing_flow_2090.0" vType="DEFAULT_VEHTYPE" speedFactor="0.93" vaporized=""/>
    <tripinfo id="flow_1710.0" depart="2.00" departLane="123172358_1" departPos="5.10" departSpeed="5.55" departDelay="2.00" arrival="38.00" arrivalLane="-361256298#2_1" arrivalPos="64.33" arrivalSpeed="14.05" duration="36.00" routeLength="439.43" waitingTime="0.00" waitingCount="0" stopTime="0.00" timeLoss="10.15" rerouteNo="1" devices="tripinfo_flow_1710.0 routing_flow_1710.0" vType="DEFAULT_VEHTYPE" speedFactor="1.02" vaporized=""/>
    <tripinfo id="flow_9994.0" depart="0.00" departLane="667982626_1" departPos="5.10" departSpeed="13.81" departDelay="0.00" arrival="38.00" arrivalLane="140483178#2_0" arrivalPos="5.46" arrivalSpeed="21.76" duration="38.00" routeLength="481.13" waitingTime="0.00" waitingCount="0" stopTime="0.00" timeLoss="7.56" rerouteNo="1" devices="tripinfo_flow_9994.0 routing_flow_9994.0" vType="DEFAULT_VEHTYPE" speedFactor="0.99" vaporized=""/>
    <tripinfo id="flow_2261.0" depart="1.00" departLane="-140483224#12_1" departPos="5.10" departSpeed="23.88" departDelay="1.00" arrival="46.00" arrivalLane="93590599#0_1" arrivalPos="177.84" arrivalSpeed="8.87" duration="45.00" routeLength="475.25" waitingTime="0.00" waitingCount="0" stopTime="0.00" timeLoss="19.92" rerouteNo="1" devices="tripinfo_flow_2261.0 routing_flow_2261.0" vType="DEFAULT_VEHTYPE" speedFactor="1.07" vaporized=""/>
    <tripinfo id="flow_2242.0" depart="0.00" departLane="140483224#12_2" departPos="5.10" departSpeed="27.54" departDelay="0.00" arrival="48.00" arrivalLane="-140483254#0_1" arrivalPos="28.53" arrivalSpeed="13.72" duration="48.00" routeLength="777.11" waitingTime="0.00" waitingCount="0" stopTime="0.00" timeLoss="10.82" rerouteNo="1" devices="tripinfo_flow_2242.0 routing_flow_2242.0" vType="DEFAULT_VEHTYPE" speedFactor="0.99" vaporized=""/>
    <tripinfo id="flow_5586.0" depart="3.00" departLane="93590608_1" departPos="5.10" departSpeed="4.67" departDelay="3.00" arrival="51.00" arrivalLane="93590599#0_1" arrivalPos="177.84" arrivalSpeed="14.05" duration="48.00" routeLength="579.74" waitingTime="0.00" waitingCount="0" stopTime="0.00" timeLoss="12.32" rerouteNo="1" devices="tripinfo_flow_5586.0 routing_flow_5586.0" vType="DEFAULT_VEHTYPE" speedFactor="1.05" vaporized=""/>
    <tripinfo id="flow_5814.0" depart="0.00" departLane="-361256298#1_1" departPos="5.10" departSpeed="21.73" departDelay="0.00" arrival="52.00" arrivalLane="361260925#4_1" arrivalPos="36.05" arrivalSpeed="8.49" duration="52.00" routeLength="456.80" waitingTime="0.00" waitingCount="0" stopTime="0.00" timeLoss="6.06" rerouteNo="1" devices="tripinfo_flow_5814.0 routing_flow_5814.0" vType="DEFAULT_VEHTYPE" speedFactor="1.06" vaporized=""/>
    <tripinfo id="flow_1596.0" depart="0.00" departLane="32083693#1_1" departPos="5.10" departSpeed="9.56" departDelay="0.00" arrival="53.00" arrivalLane="114920907#1_1" arrivalPos="186.84" arrivalSpeed="15.50" duration="53.00" routeLength="647.93" waitingTime="0.00" waitingCount="0" stopTime="0.00" timeLoss="10.00" rerouteNo="1" devices="tripinfo_flow_1596.0 routing_flow_1596.0" vType="DEFAULT_VEHTYPE" speedFactor="1.15" vaporized=""/>
    <tripinfo id="flow_6517.0" depart="0.00" departLane="140483224#7_2" departPos="5.10" departSpeed="26.39" departDelay="0.00" arrival="53.00" arrivalLane="-140483254#0_1" arrivalPos="28.53" arrivalSpeed="12.39" duration="53.00" routeLength="876.58" waitingTime="0.00" waitingCount="0" stopTime="0.00" timeLoss="10.88" rerouteNo="1" devices="tripinfo_flow_6517.0 routing_flow_6517.0" vType="DEFAULT_VEHTYPE" speedFactor="0.95" vaporized=""/>
    <tripinfo id="flow_6764.0" depart="8.00" departLane="361257726_1" departPos="5.10" departSpeed="11.73" departDelay="8.00" arrival="62.00" arrivalLane="361260925#4_1" arrivalPos="36.05" arrivalSpeed="7.24" duration="54.00" routeLength="412.66" waitingTime="0.00" waitingCount="0" stopTime="0.00" timeLoss="6.67" rerouteNo="1" devices="tripinfo_flow_6764.0 routing_flow_6764.0" vType="DEFAULT_VEHTYPE" speedFactor="0.96" vaporized=""/>
    <tripinfo id="flow_5301.0" depart="2.00" departLane="-93590611#1_1" departPos="5.10" departSpeed="12.31" departDelay="2.00" arrival="64.00" arrivalLane="-140483224#11_1" arrivalPos="2.96" arrivalSpeed="13.95" duration="62.00" routeLength="675.24" waitingTime="0.00" waitingCount="0" stopTime="0.00" timeLoss="23.68" rerouteNo="1" devices="tripinfo_flow_5301.0 routing_flow_5301.0" vType="DEFAULT_VEHTYPE" speedFactor="0.97" vaporized=""/>
    <tripinfo id="flow_2280.0" depart="3.00" departLane="-140483224#12_1" departPos="5.10" departSpeed="26.15" departDelay="3.00" arrival="66.00" arrivalLane="-140483224#0_2" arrivalPos="1075.84" arrivalSpeed="25.28" duration="63.00" routeLength="1531.91" waitingTime="0.00" waitingCount="0" stopTime="0.00" timeLoss="4.29" rerouteNo="1" devices="tripinfo_flow_2280.0 routing_flow_2280.0" vType="DEFAULT_VEHTYPE" speedFactor="0.94" vaporized=""/>
    <tripinfo id="flow_2945.0" depart="2.00" departLane="361260925#4_1" departPos="5.10" departSpeed="7.13" departDelay="2.00" arrival="72.00" arrivalLane="140483249#1_2" arrivalPos="236.18" arrivalSpeed="8.31" duration="70.00" routeLength="556.81" waitingTime="0.00" waitingCount="0" stopTime="0.00" timeLoss="9.07" rerouteNo="1" devices="tripinfo_flow_2945.0 routing_flow_2945.0" vType="DEFAULT_VEHTYPE" speedFactor="1.12" vaporized=""/>
    <tripinfo id="flow_5453.0" depart="50.00" departLane="894517879_1" departPos="5.10" departSpeed="0.78" departDelay="50.00" arrival="73.00" arrivalLane="140483224#6_2" arrivalPos="41.64" arrivalSpeed="24.16" duration="23.00" routeLength="315.01" waitingTime="0.00" waitingCount="0" stopTime="0.00" timeLoss="7.86" rerouteNo="1" devices="tripinfo_flow_5453.0 routing_flow_5453.0" vType="DEFAULT_VEHTYPE" speedFactor="0.89" vaporized=""/>
    <tripinfo id="flow_6384.0" depart="30.00" departLane="140483224#8_2" departPos="5.10" departSpeed="1.51" departDelay="30.00" arrival="73.00" arrivalLane="93590611#1_1" arrivalPos="116.98" arrivalSpeed="16.05" duration="43.00" routeLength="495.24" waitingTime="0.00" waitingCount="0" stopTime="0.00" timeLoss="14.85" rerouteNo="1" devices="tripinfo_flow_6384.0 routing_flow_6384.0" vType="DEFAULT_VEHTYPE" speedFactor="1.16" vaporized=""/>
    <tripinfo id="flow_8417.0" depart="2.00" departLane="-793339796#0_1" departPos="5.10" departSpeed="26.82" departDelay="2.00" arrival="73.00" arrivalLane="-140483254#0_1" arrivalPos="28.53" arrivalSpeed="16.98" duration="71.00" routeLength="1007.27" waitingTime="7.00" waitingCount="1" stopTime="0.00" timeLoss="34.90" rerouteNo="1" devices="tripinfo_flow_8417.0 routing_flow_8417.0" vType="DEFAULT_VEHTYPE" speedFactor="1.24" vaporized=""/>
    <tripinfo id="flow_6992.0" depart="0.00" departLane="-361256298#0_1" departPos="5.10" departSpeed="31.46" departDelay="0.00" arrival="78.00" arrivalLane="-140483254#0_1" arrivalPos="28.53" arrivalSpeed="5.68" duration="78.00" routeLength="769.48" waitingTime="24.00" waitingCount="1" stopTime="0.00" timeLoss="47.23" rerouteNo="1" devices="tripinfo_flow_6992.0 routing_flow_6992.0" vType="DEFAULT_VEHTYPE" speedFactor="1.14" vaporized=""/>
    <tripinfo id="flow_8265.0" depart="24.00" departLane="123172358_1" departPos="5.10" departSpeed="6.08" departDelay="24.00" arrival="78.00" arrivalLane="114920907#1_1" arrivalPos="186.84" arrivalSpeed="13.99" duration="54.00" routeLength="591.78" waitingTime="0.00" waitingCount="0" stopTime="0.00" timeLoss="13.16" rerouteNo="1" devices="tripinfo_flow_8265.0 routing_flow_8265.0" vType="DEFAULT_VEHTYPE" speedFactor="1.06" vaporized=""/>
    <tripinfo id="flow_8664.0" depart="19.00" departLane="-361256298#1_1" departPos="5.10" departSpeed="11.51" departDelay="19.00" arrival="80.00" arrivalLane="361260925#4_1" arrivalPos="36.05" arrivalSpeed="8.28" duration="61.00" routeLength="456.80" waitingTime="0.00" waitingCount="0" stopTime="0.00" timeLoss="16.09" rerouteNo="1" devices="tripinfo_flow_8664.0 routing_flow_8664.0" vType="DEFAULT_VEHTYPE" speedFactor="1.08" vaporized=""/>
    <tripinfo id="flow_6251.1" depart="72.00" departLane="140483224#6_2" departPos="5.10" departSpeed="22.93" departDelay="0.00" arrival="80.00" arrivalLane="140483224#12_2" arrivalPos="63.66" arrivalSpeed="32.20" duration="8.00" routeLength="209.53" waitingTime="0.00" waitingCount="0" stopTime="0.00" timeLoss="1.08" rerouteNo="1" devices="tripinfo_flow_6251.1 routing_flow_6251.1" vType="DEFAULT_VEHTYPE" speedFactor="1.20" vaporized=""/>
    <tripinfo id="flow_1235.1" depart="72.00" departLane="-361256298#2_1" departPos="5.10" departSpeed="20.85" departDelay="0.00" arrival="81.00" arrivalLane="-361256298#1_1" arrivalPos="36.33" arrivalSpeed="14.02" duration="9.00" routeLength="120.12" waitingTime="0.00" waitingCount="0" stopTime="0.00" timeLoss="3.46" rerouteNo="0" devices="tripinfo_flow_1235.1 routing_flow_1235.1" vType="DEFAULT_VEHTYPE" speedFactor="0.87" vaporized=""/>
    <tripinfo id="flow_2622.1" depart="73.00" departLane="-361256298#2_1" departPos="5.10" departSpeed="20.85" departDelay="1.00" arrival="82.00" arrivalLane="-361256298#1_1" arrivalPos="36.33" arrivalSpeed="12.98" duration="9.00" routeLength="120.12" waitingTime="0.00" waitingCount="0" stopTime="0.00" timeLoss="4.32" rerouteNo="0" devices="tripinfo_flow_2622.1 routing_flow_2622.1" vType="DEFAULT_VEHTYPE" speedFactor="0.95" vaporized=""/>
    <tripinfo id="flow_11913.1" depart="76.00" departLane="-361256298#2_1" departPos="5.10" departSpeed="14.00" departDelay="4.00" arrival="82.00" arrivalLane="-361256298#2_1" arrivalPos="64.33" arrivalSpeed="12.47" duration="6.00" routeLength="59.23" waitingTime="0.00" waitingCount="0" stopTime="0.00" timeLoss="3.84" rerouteNo="1" devices="tripinfo_flow_11913.1 routing_flow_11913.1" vType="DEFAULT_VEHTYPE" speedFactor="1.01" vaporized=""/>
    <tripinfo id="flow_7942.0" depart="9.00" departLane="-361256298#2_1" departPos="5.10" departSpeed="15.82" departDelay="9.00" arrival="90.00" arrivalLane="140483254#0_1" arrivalPos="28.53" arrivalSpeed="10.43" duration="81.00" routeLength="935.84" waitingTime="3.00" waitingCount="1" stopTime="0.00" timeLoss="33.33" rerouteNo="1" devices="tripinfo_flow_7942.0 routing_flow_7942.0" vType="DEFAULT_VEHTYPE" speedFactor="0.92" vaporized=""/>
    <tripinfo id="flow_10222.1" depart="72.00" departLane="140483224#1_2" departPos="5.10" departSpeed="26.32" departDelay="0.00" arrival="93.00" arrivalLane="140483224#8_2" arrivalPos="7.00" arrivalSpeed="7.21" duration="21.00" routeLength="311.23" waitingTime="1.00" waitingCount="1" stopTime="0.00" timeLoss="8.93" rerouteNo="1" devices="tripinfo_flow_10222.1 routing_flow_10222.1" vType="DEFAULT_VEHTYPE" speedFactor="0.95" vaporized=""/>
    <tripinfo id="flow_12141.1" depart="77.00" departLane="-361256298#2_1" departPos="5.10" departSpeed="10.86" departDelay="5.00" arrival="93.00" arrivalLane="-361256298#0_1" arrivalPos="47.11" arrivalSpeed="13.76" duration="16.00" routeLength="175.17" waitingTime="0.00" waitingCount="0" stopTime="0.00" timeLoss="8.88" rerouteNo="1" devices="tripinfo_flow_12141.1 routing_flow_12141.1" vType="DEFAULT_VEHTYPE" speedFactor="0.95" vaporized=""/>
    <tripinfo id="flow_4503.0" depart="7.00" departLane="-140483178#2_0" departPos="5.10" departSpeed="12.00" departDelay="7.00" arrival="96.00" arrivalLane="140483224#7_2" arrivalPos="17.70" arrivalSpeed="7.75" duration="89.00" routeLength="470.34" waitingTime="14.00" waitingCount="2" stopTime="0.00" timeLoss="61.69" rerouteNo="1" devices="tripinfo_flow_4503.0 routing_flow_4503.0" vType="DEFAULT_VEHTYPE" speedFactor="0.88" vaporized=""/>
    <tripinfo id="flow_6859.0" depart="4.00" departLane="-361256298#0_2" departPos="5.10" departSpeed="10.80" departDelay="4.00" arrival="102.00" arrivalLane="-93590611#1_1" arrivalPos="106.63" arrivalSpeed="12.98" duration="98.00" routeLength="830.36" waitingTime="22.00" waitingCount="2" stopTime="0.00" timeLoss="58.26" rerouteNo="1" devices="tripinfo_flow_6859.0 routing_flow_6859.0" vType="DEFAULT_VEHTYPE" speedFactor="0.95" vaporized=""/>
    <tripinfo id="flow_3515.0" depart="1.00" departLane="-1120222500_1" departPos="5.10" departSpeed="11.67" departDelay="1.00" arrival="110.00" arrivalLane="-93590611#1_1" arrivalPos="106.63" arrivalSpeed="11.64" duration="109.00" routeLength="953.52" waitingTime="27.00" waitingCount="2" stopTime="0.00" timeLoss="55.80" rerouteNo="1" devices="tripinfo_flow_3515.0 routing_flow_3515.0" vType="DEFAULT_VEHTYPE" speedFactor="0.92" vaporized=""/>
    <tripinfo id="flow_8892.0" depart="22.00" departLane="361257726_1" departPos="5.10" departSpeed="10.76" departDelay="22.00" arrival="110.00" arrivalLane="-140483254#0_1" arrivalPos="28.53" arrivalSpeed="6.82" duration="88.00" routeLength="873.94" waitingTime="8.00" waitingCount="1" stopTime="0.00" timeLoss="36.26" rerouteNo="1" devices="tripinfo_flow_8892.0 routing_flow_8892.0" vType="DEFAULT_VEHTYPE" speedFactor="1.06" vaporized=""/>
    <tripinfo id="flow_8132.0" depart="0.00" departLane="-793339796#1_1" departPos="5.10" departSpeed="23.36" departDelay="0.00" arrival="112.00" arrivalLane="-123172358_1" arrivalPos="256.71" arrivalSpeed="5.31" duration="112.00" routeLength="315.72" waitingTime="70.00" waitingCount="2" stopTime="0.00" timeLoss="88.43" rerouteNo="0" devices="tripinfo_flow_8132.0 routing_flow_8132.0" vType="DEFAULT_VEHTYPE" speedFactor="0.97" vaporized=""/>
    <tripinfo id="flow_2090.1" depart="72.00" departLane="-140483224#12_1" departPos="5.10" departSpeed="20.27" departDelay="0.00" arrival="112.00" arrivalLane="-93590611#1_1" arrivalPos="106.63" arrivalSpeed="14.87" duration="40.00" routeLength="596.51" waitingTime="0.00" waitingCount="0" stopTime="0.00" timeLoss="13.77" rerouteNo="1" devices="tripinfo_flow_2090.1 routing_flow_2090.1" vType="DEFAULT_VEHTYPE" speedFactor="1.14" vaporized=""/>
    <tripinfo id="flow_12236.0" depart="21.00" departLane="-361256298#1_1" departPos="5.10" departSpeed="13.55" departDelay="21.00" arrival="113.00" arrivalLane="140483254#0_1" arrivalPos="28.53" arrivalSpeed="11.43" duration="92.00" routeLength="846.95" waitingTime="18.00" waitingCount="1" stopTime="0.00" timeLoss="46.68" rerouteNo="1" devices="tripinfo_flow_12236.0 routing_flow_12236.0" vType="DEFAULT_VEHTYPE" speedFactor="0.91" vaporized=""/>
    <tripinfo id="flow_1501.0" depart="2.00" departLane="-32083693#1_1" departPos="5.10" departSpeed="7.83" departDelay="2.00" arrival="114.00" arrivalLane="140483249#1_2" arrivalPos="236.18" arrivalSpeed="7.98" duration="112.00" routeLength="849.58" waitingTime="0.00" waitingCount="0" stopTime="0.00" timeLoss="17.03" rerouteNo="1" devices="tripinfo_flow_1501.0 routing_flow_1501.0" vType="DEFAULT_VEHTYPE" speedFactor="1.09" vaporized=""/>
    <tripinfo id="flow_2470.0" depart="0.00" departLane="140483249#1_1" departPos="5.10" departSpeed="8.60" departDelay="0.00" arrival="117.00" arrivalLane="140483249#0_1" arrivalPos="46.30" arrivalSpeed="7.41" duration="117.00" routeLength="791.25" waitingTime="11.00" waitingCount="2" stopTime="0.00" timeLoss="39.34" rerouteNo="1" devices="tripinfo_flow_2470.0 routing_flow_2470.0" vType="DEFAULT_VEHTYPE" speedFactor="1.03" vaporized=""/>
    <tripinfo id="flow_2261.1" depart="73.00" departLane="-140483224#12_1" departPos="5.10" departSpeed="18.11" departDelay="1.00" arrival="118.00" arrivalLane="93590599#0_1" arrivalPos="177.84" arrivalSpeed="6.40" duration="45.00" routeLength="475.25" waitingTime="0.00" waitingCount="0" stopTime="0.00" timeLoss="18.98" rerouteNo="1" devices="tripinfo_flow_2261.1 routing_flow_2261.1" vType="DEFAULT_VEHTYPE" speedFactor="1.03" vaporized=""/>
    <tripinfo id="flow_5814.1" depart="72.00" departLane="-361256298#1_1" departPos="5.10" departSpeed="22.36" departDelay="0.00" arrival="119.00" arrivalLane="361260925#4_1" arrivalPos="36.05" arrivalSpeed="9.01" duration="47.00" routeLength="456.80" waitingTime="0.00" waitingCount="0" stopTime="0.00" timeLoss="7.80" rerouteNo="1" devices="tripinfo_flow_5814.1 routing_flow_5814.1" vType="DEFAULT_VEHTYPE" speedFactor="1.23" vaporized=""/>
    <tripinfo id="flow_9101.0" depart="0.00" departLane="-140483254#0_1" departPos="5.10" departSpeed="13.06" departDelay="0.00" arrival="122.00" arrivalLane="-140483224#11_1" arrivalPos="2.96" arrivalSpeed="17.23" duration="122.00" routeLength="801.03" waitingTime="50.00" waitingCount="1" stopTime="0.00" timeLoss="80.65" rerouteNo="1" devices="tripinfo_flow_9101.0 routing_flow_9101.0" vType="DEFAULT_VEHTYPE" speedFactor="0.94" vaporized=""/>
    <tripinfo id="flow_1520.0" depart="3.00" departLane="-123172358_1" departPos="5.10" departSpeed="11.05" departDelay="3.00" arrival="124.00" arrivalLane="140483249#0_2" arrivalPos="46.30" arrivalSpeed="7.50" duration="121.00" routeLength="774.68" waitingTime="25.00" waitingCount="2" stopTime="0.00" timeLoss="42.39" rerouteNo="1" devices="tripinfo_flow_1520.0 routing_flow_1520.0" vType="DEFAULT_VEHTYPE" speedFactor="1.03" vaporized=""/>
    <tripinfo id="flow_8664.1" depart="73.00" departLane="-361256298#1_1" departPos="5.10" departSpeed="15.99" departDelay="1.00" arrival="130.00" arrivalLane="361260925#4_1" arrivalPos="36.05" arrivalSpeed="6.89" duration="57.00" routeLength="456.80" waitingTime="0.00" waitingCount="0" stopTime="0.00" timeLoss="6.90" rerouteNo="1" devices="tripinfo_flow_8664.1 routing_flow_8664.1" vType="DEFAULT_VEHTYPE" speedFactor="0.96" vaporized=""/>
    <tripinfo id="flow_7030.0" depart="19.00" departLane="361257726_1" departPos="5.10" departSpeed="12.90" departDelay="19.00" arrival="135.00" arrivalLane="-140483224#0_1" arrivalPos="1075.84" arrivalSpeed="20.06" duration="116.00" routeLength="1883.20" waitingTime="11.00" waitingCount="1" stopTime="0.00" timeLoss="40.58" rerouteNo="1" devices="tripinfo_flow_7030.0 routing_flow_7030.0" vType="DEFAULT_VEHTYPE" speedFactor="1.11" vaporized=""/>
    <tripinfo id="flow_2280.1" depart="77.00" departLane="-140483224#12_1" departPos="5.10" departSpeed="14.23" departDelay="5.00" arrival="138.00" arrivalLane="-140483224#0_2" arrivalPos="1075.84" arrivalSpeed="27.68" duration="61.00" routeLength="1531.91" waitingTime="0.00" waitingCount="0" stopTime="0.00" timeLoss="7.23" rerouteNo="1" devices="tripinfo_flow_2280.1 routing_flow_2280.1" vType="DEFAULT_VEHTYPE" speedFactor="1.03" vaporized=""/>
    <tripinfo id="flow_8930.0" depart="25.00" departLane="361257726_1" departPos="5.10" departSpeed="9.63" departDelay="25.00" arrival="140.00" arrivalLane="-140483224#0_1" arrivalPos="1075.84" arrivalSpeed="28.17" duration="115.00" routeLength="1883.20" waitingTime="5.00" waitingCount="1" stopTime="0.00" timeLoss="33.82" rerouteNo="1" devices="tripinfo_flow_8930.0 routing_flow_8930.0" vType="DEFAULT_VEHTYPE" speedFactor="1.04" vaporized=""/>
    <tripinfo id="flow_6384.1" depart="96.00" departLane="140483224#8_2" departPos="5.10" departSpeed="5.22" departDelay="24.00" arrival="141.00" arrivalLane="93590611#1_1" arrivalPos="116.98" arrivalSpeed="13.66" duration="45.00" routeLength="495.24" waitingTime="0.00" waitingCount="0" stopTime="0.00" timeLoss="14.65" rerouteNo="1" devices="tripinfo_flow_6384.1 routing_flow_6384.1" vType="DEFAULT_VEHTYPE" speedFactor="1.03" vaporized=""/>
    <tripinfo id="flow_9386.0" depart="15.00" departLane="-140483254#0_1" departPos="5.10" departSpeed="3.94" departDelay="15.00" arrival="152.00" arrivalLane="93590599#0_1" arrivalPos="177.84" arrivalSpeed="15.46" duration="137.00" routeLength="1208.65" waitingTime="37.00" waitingCount="1" stopTime="0.00" timeLoss="82.81" rerouteNo="1" devices="tripinfo_flow_9386.0 routing_flow_9386.0" vType="DEFAULT_VEHTYPE" speedFactor="1.18" vaporized=""/>
    <tripinfo id="flow_1235.2" depart="144.00" departLane="-361256298#2_1" departPos="5.10" departSpeed="20.85" departDelay="0.00" arrival="153.00" arrivalLane="-361256298#1_1" arrivalPos="36.33" arrivalSpeed="12.73" duration="9.00" routeLength="120.12" waitingTime="0.00" waitingCount="0" stopTime="0.00" timeLoss="4.59" rerouteNo="0" devices="tripinfo_flow_1235.2 routing_flow_1235.2" vType="DEFAULT_VEHTYPE" speedFactor="1.07" vaporized=""/>
    <tripinfo id="flow_2622.2" depart="145.00" departLane="-361256298#2_1" departPos="5.10" departSpeed="20.85" departDelay="1.00" arrival="154.00" arrivalLane="-361256298#1_1" arrivalPos="36.33" arrivalSpeed="12.63" duration="9.00" routeLength="120.12" waitingTime="0.00" waitingCount="0" stopTime="0.00" timeLoss="4.91" rerouteNo="0" devices="tripinfo_flow_2622.2 routing_flow_2622.2" vType="DEFAULT_VEHTYPE" speedFactor="1.07" vaporized=""/>
    <tripinfo id="flow_11913.2" depart="148.00" departLane="-361256298#2_1" departPos="5.10" departSpeed="15.69" departDelay="4.00" arrival="154.00" arrivalLane="-361256298#2_1" arrivalPos="64.33" arrivalSpeed="11.49" duration="6.00" routeLength="59.23" waitingTime="0.00" waitingCount="0" stopTime="0.00" timeLoss="3.68" rerouteNo="1" devices="tripinfo_flow_11913.2 routing_flow_11913.2" vType="DEFAULT_VEHTYPE" speedFactor="0.95" vaporized=""/>
    <tripinfo id="flow_5605.0" depart="4.00" departLane="93590611#1_1" departPos="5.10" departSpeed="6.80" departDelay="4.00" arrival="156.00" arrivalLane="140483224#0_1" arrivalPos="1070.06" arrivalSpeed="25.64" duration="152.00" routeLength="2306.60" waitingTime="27.00" waitingCount="2" stopTime="0.00" timeLoss="57.43" rerouteNo="1" devices="tripinfo_flow_5605.0 routing_flow_5605.0" vType="DEFAULT_VEHTYPE" speedFactor="0.96" vaporized=""/>
    <tripinfo id="flow_3154.0" depart="7.00" departLane="361260925#2_1" departPos="5.10" departSpeed="7.05" departDelay="7.00" arrival="164.00" arrivalLane="-793339796#2_1" arrivalPos="83.13" arrivalSpeed="6.16" duration="157.00" routeLength="1223.03" waitingTime="45.00" waitingCount="1" stopTime="0.00" timeLoss="78.42" rerouteNo="1" devices="tripinfo_flow_3154.0 routing_flow_3154.0" vType="DEFAULT_VEHTYPE" speedFactor="1.00" vaporized=""/>
    <tripinfo id="flow_9709.0" depart="12.00" departLane="93590599#0_1" departPos="5.10" departSpeed="10.52" departDelay="12.00" arrival="164.00" arrivalLane="-894517879_1" arrivalPos="25.85" arrivalSpeed="12.05" duration="152.00" routeLength="715.02" waitingTime="55.00" waitingCount="4" stopTime="0.00" timeLoss="104.62" rerouteNo="1" devices="tripinfo_flow_9709.0 routing_flow_9709.0" vType="DEFAULT_VEHTYPE" speedFactor="1.01" vaporized=""/>
    <tripinfo id="flow_12141.2" depart="149.00" departLane="-361256298#2_1" departPos="5.10" departSpeed="12.35" departDelay="5.00" arrival="165.00" arrivalLane="-361256298#0_1" arrivalPos="47.11" arrivalSpeed="18.53" duration="16.00" routeLength="175.17" waitingTime="0.00" waitingCount="0" stopTime="0.00" timeLoss="9.42" rerouteNo="1" devices="tripinfo_flow_12141.2 routing_flow_12141.2" vType="DEFAULT_VEHTYPE" speedFactor="1.04" vaporized=""/>
    <tripinfo id="flow_2242.1" depart="72.00" departLane="140483224#12_2" departPos="5.10" departSpeed="31.78" departDelay="0.00" arrival="173.00" arrivalLane="-140483254#0_1" arrivalPos="28.53" arrivalSpeed="7.17" duration="101.00" routeLength="777.11" waitingTime="50.00" waitingCount="1" stopTime="0.00" timeLoss="68.89" rerouteNo="1" devices="tripinfo_flow_2242.1 routing_flow_2242.1" vType="DEFAULT_VEHTYPE" speedFactor="1.14" vaporized=""/>